unknown system                          
           1
     5.788500    0.000000    0.000000
     0.000000    5.788500    0.000000
     0.000000    0.000000    5.788500
   Fe   C 
  16   1
Direct configuration=     1
   0.00000000  0.00000000  0.00000000
   0.25000000  0.25000000  0.25000000
   0.00000000  0.00000000  0.50000000
   0.25000000  0.25000000  0.75000000
   0.00000000  0.50000000  0.00000000
   0.25000000  0.75000000  0.25000000
   0.00000000  0.50000000  0.50000000
   0.25000000  0.75000000  0.75000000
   0.50000000  0.00000000  0.00000000
   0.75000000  0.25000000  0.25000000
   0.50000000  0.00000000  0.50000000
   0.75000000  0.25000000  0.75000000
   0.50000000  0.50000000  0.00000000
   0.75000000  0.75000000  0.25000000
   0.50000000  0.50000000  0.50000000
   0.75000000  0.75000000  0.75000000
   0.00000000  0.37500000  0.25000000
Direct configuration=     2
  -0.00000000 -0.00024680 -0.00027415
   0.25487274  0.24741684  0.25000000
  -0.00000000 -0.00024680  0.50027415
   0.25006741  0.25000353  0.75000000
  -0.00000000  0.50258469 -0.00487471
   0.25027350  0.75024570  0.25000000
  -0.00000000  0.50258469  0.50487471
   0.25015813  0.75016790  0.75000000
   0.50000000  0.00000000  0.00000000
   0.74512726  0.24741684  0.25000000
   0.50000000  0.00000000  0.50000000
   0.74993259  0.25000353  0.75000000
   0.50000000  0.50000000  0.00000000
   0.74972650  0.75024570  0.25000000
   0.50000000  0.50000000  0.50000000
   0.74984187  0.75016790  0.75000000
   0.00000000  0.37500000  0.25000000
Direct configuration=     3
  -0.00000000 -0.00098722 -0.00109662
   0.26949097  0.23966736  0.25000000
  -0.00000000 -0.00098722  0.50109662
   0.25026962  0.25001414  0.75000000
  -0.00000000  0.51033875 -0.01949884
   0.25109400  0.75098279  0.25000000
  -0.00000000  0.51033875  0.51949884
   0.25063254  0.75067159  0.75000000
   0.50000000  0.00000000  0.00000000
   0.73050903  0.23966736  0.25000000
   0.50000000  0.00000000  0.50000000
   0.74973038  0.25001414  0.75000000
   0.50000000  0.50000000  0.00000000
   0.74890600  0.75098279  0.25000000
   0.50000000  0.50000000  0.50000000
   0.74936746  0.75067159  0.75000000
   0.00000000  0.37500000  0.25000000
Direct configuration=     4
  -0.00000000 -0.00126273 -0.00140267
   0.27493063  0.23678366  0.25000000
  -0.00000000 -0.00126273  0.50140267
   0.25034487  0.25001808  0.75000000
  -0.00000000  0.51322415 -0.02494069
   0.25139933  0.75125707  0.25000000
  -0.00000000  0.51322415  0.52494069
   0.25080907  0.75085902  0.75000000
   0.50000000  0.00000000  0.00000000
   0.72506937  0.23678366  0.25000000
   0.50000000  0.00000000  0.50000000
   0.74965513  0.25001808  0.75000000
   0.50000000  0.50000000  0.00000000
   0.74860067  0.75125707  0.25000000
   0.50000000  0.50000000  0.50000000
   0.74919093  0.75085902  0.75000000
   0.00000000  0.37500000  0.25000000
Direct configuration=     5
  -0.00000000 -0.00133268 -0.00148036
   0.27631156  0.23605160  0.25000000
  -0.00000000 -0.00133268  0.50148036
   0.25036397  0.25001908  0.75000000
  -0.00000000  0.51395665 -0.02632218
   0.25147684  0.75132670  0.25000000
  -0.00000000  0.51395665  0.52632218
   0.25085388  0.75090660  0.75000000
   0.50000000  0.00000000  0.00000000
   0.72368844  0.23605160  0.25000000
   0.50000000  0.00000000  0.50000000
   0.74963603  0.25001908  0.75000000
   0.50000000  0.50000000  0.00000000
   0.74852316  0.75132670  0.25000000
   0.50000000  0.50000000  0.50000000
   0.74914612  0.75090660  0.75000000
   0.00000000  0.37500000  0.25000000
Direct configuration=     6
  -0.00000000 -0.00108764 -0.00125709
   0.27672049  0.23661942  0.25000000
  -0.00000000 -0.00108764  0.50125709
   0.25060750  0.25003207  0.75000000
  -0.00000000  0.51342478 -0.02676425
   0.25125105  0.75109657  0.25000000
  -0.00000000  0.51342478  0.52676425
   0.25163934  0.75174604  0.75000000
   0.50000000  0.00000000  0.00000000
   0.72327951  0.23661942  0.25000000
   0.50000000  0.00000000  0.50000000
   0.74939250  0.25003207  0.75000000
   0.50000000  0.50000000  0.00000000
   0.74874895  0.75109657  0.25000000
   0.50000000  0.50000000  0.50000000
   0.74836066  0.75174604  0.75000000
   0.00000000  0.37500000  0.25000000
Direct configuration=     7
  -0.00000000 -0.00035252 -0.00058726
   0.27794727  0.23832290  0.25000000
  -0.00000000 -0.00035252  0.50058726
   0.25133806  0.25007102  0.75000000
  -0.00000000  0.51182918 -0.02809045
   0.25057369  0.75040616  0.25000000
  -0.00000000  0.51182918  0.52809045
   0.25399570  0.75426437  0.75000000
   0.50000000  0.00000000  0.00000000
   0.72205273  0.23832290  0.25000000
   0.50000000  0.00000000  0.50000000
   0.74866194  0.25007102  0.75000000
   0.50000000  0.50000000  0.00000000
   0.74942631  0.75040616  0.25000000
   0.50000000  0.50000000  0.50000000
   0.74600430  0.75426437  0.75000000
   0.00000000  0.37500000  0.25000000
Direct configuration=     8
  -0.00000000  0.00111771  0.00075240
   0.28040084  0.24172987  0.25000000
  -0.00000000  0.00111771  0.49924760
   0.25279920  0.25014892  0.75000000
  -0.00000000  0.50863798 -0.03074287
   0.24921898  0.74902533  0.25000000
  -0.00000000  0.50863798  0.53074287
   0.25870844  0.75930101  0.75000000
   0.50000000  0.00000000  0.00000000
   0.71959916  0.24172987  0.25000000
   0.50000000  0.00000000  0.50000000
   0.74720080  0.25014892  0.75000000
   0.50000000  0.50000000  0.00000000
   0.75078102  0.74902533  0.25000000
   0.50000000  0.50000000  0.50000000
   0.74129156  0.75930101  0.75000000
   0.00000000  0.37500000  0.25000000
Direct configuration=     9
  -0.00000000  0.00158593  0.00117903
   0.28118222  0.24281487  0.25000000
  -0.00000000  0.00158593  0.49882097
   0.25326453  0.25017372  0.75000000
  -0.00000000  0.50762169 -0.03158757
   0.24878754  0.74858558  0.25000000
  -0.00000000  0.50762169  0.53158757
   0.26020928  0.76090501  0.75000000
   0.50000000  0.00000000  0.00000000
   0.71881778  0.24281487  0.25000000
   0.50000000  0.00000000  0.50000000
   0.74673547  0.25017372  0.75000000
   0.50000000  0.50000000  0.00000000
   0.75121246  0.74858558  0.25000000
   0.50000000  0.50000000  0.50000000
   0.73979072  0.76090501  0.75000000
   0.00000000  0.37500000  0.25000000
Direct configuration=    10
  -0.00000000  0.00229279  0.00194058
   0.28102019  0.24433150  0.25000000
  -0.00000000  0.00229279  0.49805942
   0.25366076  0.24997301  0.75000000
  -0.00000000  0.50735362 -0.03248111
   0.24788914  0.74814588  0.25000000
  -0.00000000  0.50735362  0.53248111
   0.25941777  0.76106354  0.75000000
   0.50000000  0.00000000  0.00000000
   0.71897981  0.24433150  0.25000000
   0.50000000  0.00000000  0.50000000
   0.74633924  0.24997301  0.75000000
   0.50000000  0.50000000  0.00000000
   0.75211086  0.74814588  0.25000000
   0.50000000  0.50000000  0.50000000
   0.74058223  0.76106354  0.75000000
   0.00000000  0.37500000  0.25000000
Direct configuration=    11
  -0.00000000  0.00419258  0.00398733
   0.28058472  0.24840764  0.25000000
  -0.00000000  0.00419258  0.49601267
   0.25472570  0.24943356  0.75000000
  -0.00000000  0.50663313 -0.03488263
   0.24547456  0.74696412  0.25000000
  -0.00000000  0.50663313  0.53488263
   0.25729047  0.76148961  0.75000000
   0.50000000  0.00000000  0.00000000
   0.71941528  0.24840764  0.25000000
   0.50000000  0.00000000  0.50000000
   0.74527430  0.24943356  0.75000000
   0.50000000  0.50000000  0.00000000
   0.75452544  0.74696412  0.25000000
   0.50000000  0.50000000  0.50000000
   0.74270953  0.76148961  0.75000000
   0.00000000  0.37500000  0.25000000
Direct configuration=    12
  -0.00000000  0.00520008  0.00462671
   0.28206774  0.24873856  0.25000000
  -0.00000000  0.00520008  0.49537329
   0.25517147  0.24870206  0.75000000
  -0.00000000  0.50640928 -0.03483844
   0.24481601  0.74691067  0.25000000
  -0.00000000  0.50640928  0.53483844
   0.25606038  0.76155111  0.75000000
   0.50000000  0.00000000  0.00000000
   0.71793226  0.24873856  0.25000000
   0.50000000  0.00000000  0.50000000
   0.74482853  0.24870206  0.75000000
   0.50000000  0.50000000  0.00000000
   0.75518399  0.74691067  0.25000000
   0.50000000  0.50000000  0.50000000
   0.74393962  0.76155111  0.75000000
   0.00000000  0.37500000  0.25000000
Direct configuration=    13
  -0.00000000  0.00574913  0.00497515
   0.28287593  0.24891890  0.25000000
  -0.00000000  0.00574913  0.49502485
   0.25541439  0.24830342  0.75000000
  -0.00000000  0.50628729 -0.03481436
   0.24445713  0.74688155  0.25000000
  -0.00000000  0.50628729  0.53481436
   0.25539003  0.76158462  0.75000000
   0.50000000  0.00000000  0.00000000
   0.71712407  0.24891890  0.25000000
   0.50000000  0.00000000  0.50000000
   0.74458561  0.24830342  0.75000000
   0.50000000  0.50000000  0.00000000
   0.75554287  0.74688155  0.25000000
   0.50000000  0.50000000  0.50000000
   0.74460997  0.76158462  0.75000000
   0.00000000  0.37500000  0.25000000
Direct configuration=    14
  -0.00000000  0.00631197  0.00517578
   0.28277869  0.24883781  0.25000000
  -0.00000000  0.00631197  0.49482422
   0.25540382  0.24817856  0.75000000
  -0.00000000  0.50595673 -0.03419241
   0.24469547  0.74709402  0.25000000
  -0.00000000  0.50595673  0.53419241
   0.25528941  0.76157318  0.75000000
   0.50000000  0.00000000  0.00000000
   0.71722131  0.24883781  0.25000000
   0.50000000  0.00000000  0.50000000
   0.74459618  0.24817856  0.75000000
   0.50000000  0.50000000  0.00000000
   0.75530453  0.74709402  0.25000000
   0.50000000  0.50000000  0.50000000
   0.74471059  0.76157318  0.75000000
   0.00000000  0.37500000  0.25000000
Direct configuration=    15
  -0.00000000  0.00638451  0.00520164
   0.28276616  0.24882736  0.25000000
  -0.00000000  0.00638451  0.49479836
   0.25540246  0.24816247  0.75000000
  -0.00000000  0.50591413 -0.03411225
   0.24472619  0.74712140  0.25000000
  -0.00000000  0.50591413  0.53411225
   0.25527644  0.76157170  0.75000000
   0.50000000  0.00000000  0.00000000
   0.71723384  0.24882736  0.25000000
   0.50000000  0.00000000  0.50000000
   0.74459754  0.24816247  0.75000000
   0.50000000  0.50000000  0.00000000
   0.75527381  0.74712140  0.25000000
   0.50000000  0.50000000  0.50000000
   0.74472356  0.76157170  0.75000000
   0.00000000  0.37500000  0.25000000
