   17   17   99    2
  0.1140904E+02  0.5788500E-09  0.5788500E-09  0.5788500E-09  0.5000000E-16
  1.000000000000000E-004
  CAR 
 unknown system                          
    228     64    176
 
  0.6250000E-01  0.6250000E-01  0.6250000E-01  0.1562500E-01
    1      -45.041354    -42.959678   1.000000   1.000000
    2      -45.027647    -42.847601   1.000000   1.000000
    3      -45.012166    -42.816035   1.000000   1.000000
    4      -45.010413    -42.730260   1.000000   1.000000
    5      -45.002888    -42.440082   1.000000   1.000000
    6      -44.970291    -42.437513   1.000000   1.000000
    7      -44.964420    -42.413852   1.000000   1.000000
    8      -44.928705    -42.401308   1.000000   1.000000
    9      -44.927443    -42.379756   1.000000   1.000000
   10      -44.922124    -42.356245   1.000000   1.000000
   11      -44.901496    -42.325248   1.000000   1.000000
   12      -44.898571    -42.323539   1.000000   1.000000
   13      -44.895384    -42.147969   1.000000   1.000000
   14      -44.886705    -42.104437   1.000000   1.000000
   15      -44.868567    -42.080854   1.000000   1.000000
   16      -44.851307    -42.078138   1.000000   1.000000
   17      -44.847192    -42.072805   1.000000   1.000000
   18      -44.837767    -42.071829   1.000000   1.000000
   19      -44.835553    -42.042392   1.000000   1.000000
   20      -44.830912    -42.035752   1.000000   1.000000
   21      -44.825339    -42.030325   1.000000   1.000000
   22      -44.816904    -41.984772   1.000000   1.000000
   23      -44.808018    -41.981004   1.000000   1.000000
   24      -44.801116    -41.974962   1.000000   1.000000
   25      -44.795731    -41.970028   1.000000   1.000000
   26      -44.776436    -41.962481   1.000000   1.000000
   27      -44.771689    -41.957266   1.000000   1.000000
   28      -44.765814    -41.952529   1.000000   1.000000
   29      -44.763065    -41.945894   1.000000   1.000000
   30      -44.756592    -41.938696   1.000000   1.000000
   31      -44.750878    -41.934556   1.000000   1.000000
   32      -44.739287    -41.926640   1.000000   1.000000
   33      -44.714239    -41.924464   1.000000   1.000000
   34      -44.709731    -41.919073   1.000000   1.000000
   35      -44.701667    -41.915119   1.000000   1.000000
   36      -44.695383    -41.909278   1.000000   1.000000
   37      -44.686001    -41.899003   1.000000   1.000000
   38      -44.680603    -41.896718   1.000000   1.000000
   39      -44.671308    -41.876073   1.000000   1.000000
   40      -44.628492    -41.870510   1.000000   1.000000
   41      -44.618311    -41.855498   1.000000   1.000000
   42      -44.583436    -41.854905   1.000000   1.000000
   43      -44.581249    -41.837108   1.000000   1.000000
   44      -44.576027    -41.830865   1.000000   1.000000
   45      -44.538959    -41.810765   1.000000   1.000000
   46      -44.525620    -41.786928   1.000000   1.000000
   47      -44.524356    -41.783270   1.000000   1.000000
   48      -44.515481    -41.756775   1.000000   1.000000
   49       -2.705519     -2.732183   1.000000   1.000000
   50        1.786705      1.993372   1.000000   1.000000
   51        3.117449      3.611094   1.000000   1.000000
   52        3.414376      3.887444   1.000000   1.000000
   53        3.448287      3.948701   1.000000   1.000000
   54        4.528822      5.188769   1.000000   1.000000
   55        4.543092      5.238594   1.000000   1.000000
   56        4.574405      5.444757   1.000000   1.000000
   57        4.672710      5.733584   1.000000   1.000000
   58        4.676468      5.776736   1.000000   1.000000
   59        4.701821      5.827892   1.000000   1.000000
   60        4.768580      6.009730   1.000000   1.000000
   61        4.823268      6.017623   1.000000   1.000000
   62        4.908927      6.490241   1.000000   1.000000
   63        4.931438      6.541097   1.000000   1.000000
   64        5.378467      6.611707   1.000000   1.000000
   65        5.401635      6.670187   1.000000   1.000000
   66        5.713966      7.164445   1.000000   1.000000
   67        5.763837      7.227202   1.000000   1.000000
   68        5.909235      7.510905   1.000000   1.000000
   69        5.951945      7.515415   1.000000   1.000000
   70        6.029367      7.702962   1.000000   1.000000
   71        6.047503      7.750293   1.000000   1.000000
   72        6.079493      7.809922   1.000000   1.000000
   73        6.102796      7.861628   1.000000   1.000000
   74        6.122885      7.930079   1.000000   1.000000
   75        6.152427      8.023208   1.000000   1.000000
   76        6.185771      8.035833   1.000000   1.000000
   77        6.204495      8.080312   1.000000   1.000000
   78        6.275928      8.090567   1.000000   1.000000
   79        6.335874      8.247854   1.000000   1.000000
   80        6.352918      8.442493   1.000000   1.000000
   81        6.522136      8.586112   1.000000   1.000000
   82        6.664208      8.699056   1.000000   1.000000
   83        6.736641      8.754076   1.000000   1.000000
   84        6.996879      8.944632   1.000000   1.000000
   85        7.006712      8.975026   1.000000   1.000000
   86        7.045592      9.087311   1.000000   1.000340
   87        7.138993      9.116806   1.000000   1.001368
   88        7.178431      9.152386   1.000000   1.005581
   89        7.220053      9.185865   1.000000   1.015540
   90        7.226316      9.219926   1.000000   1.030579
   91        7.320563      9.312896   1.000000   0.870893
   92        7.349988      9.354831   1.000000   0.569221
   93        7.406023      9.396970   1.000000   0.230374
   94        7.431207      9.429653   1.000000   0.052518
   95        7.462761      9.493748   1.000000  -0.034526
   96        7.514169      9.517391   1.000000  -0.025678
   97        7.775924      9.557776   1.000000  -0.009442
   98        7.810402      9.594915   1.000000  -0.002504
   99        7.882031      9.681148   1.000000  -0.000033
  100        7.890026      9.748086   1.000000  -0.000000
  101        7.951008      9.778925   1.000000  -0.000000
  102        8.042445      9.851268   1.000000  -0.000000
  103        8.106384     10.078334   1.000000  -0.000000
  104        8.126661     10.109152   1.000000  -0.000000
  105        8.138398     10.187608   1.000000  -0.000000
  106        8.152053     10.411579   1.000000  -0.000000
  107        8.171928     10.464396   1.000000  -0.000000
  108        8.185183     10.536240   1.000000  -0.000000
  109        8.210627     10.593416   1.000000  -0.000000
  110        8.257530     10.656507   1.000000  -0.000000
  111        8.269855     10.676449   1.000000  -0.000000
  112        8.304215     10.682787   1.000000  -0.000000
  113        8.330118     10.807459   1.000000  -0.000000
  114        8.366143     10.826692   1.000000  -0.000000
  115        8.378379     10.953263   1.000000  -0.000000
  116        8.387635     10.967651   1.000000  -0.000000
  117        8.394108     10.975449   1.000000  -0.000000
  118        8.402090     10.988988   1.000000  -0.000000
  119        8.439884     11.174363   1.000000  -0.000000
  120        8.457215     11.182178   1.000000  -0.000000
  121        8.512345     11.210300   1.000000  -0.000000
  122        8.790318     11.242673   1.000000  -0.000000
  123        8.873697     11.291298   1.000000  -0.000000
  124        8.894594     11.313361   1.000000  -0.000000
  125        9.040655     11.336476   1.000025  -0.000000
  126        9.105357     11.392611   1.000816  -0.000000
  127        9.117343     11.514445   1.001400  -0.000000
  128        9.162188     11.527752   1.007776  -0.000000
  129        9.212347     11.564244   1.027341  -0.000000
  130        9.239246     11.576148   1.035431  -0.000000
  131        9.292572     11.614413   0.961500  -0.000000
  132        9.329119     11.641169   0.769581  -0.000000
  133        9.395349     11.703916   0.241767  -0.000000
  134        9.487752     11.801283  -0.035383  -0.000000
  135        9.540645     11.862489  -0.015369  -0.000000
  136        9.671294     11.907324  -0.000058  -0.000000
  137        9.767751     11.951127  -0.000000  -0.000000
  138        9.896248     11.975879  -0.000000  -0.000000
  139        9.968093     11.993876  -0.000000  -0.000000
  140       10.069512     12.028154  -0.000000  -0.000000
  141       10.218824     12.106357  -0.000000   0.000000
  142       12.835807     13.880567   0.000000   0.000000
  143       12.950153     14.105405   0.000000   0.000000
  144       13.127686     14.206365   0.000000   0.000000
  145       14.623365     15.786957   0.000000   0.000000
  146       15.975624     17.305737   0.000000   0.000000
  147       16.092238     17.520483   0.000000   0.000000
  148       16.197435     17.545186   0.000000   0.000000
  149       16.589097     17.782338   0.000000   0.000000
  150       16.645403     17.822529   0.000000   0.000000
  151       17.055709     18.202870   0.000000   0.000000
  152       17.432995     18.403190   0.000000   0.000000
  153       17.576379     18.470198   0.000000   0.000000
  154       17.814968     18.532770   0.000000   0.000000
  155       18.181024     18.855335   0.000000   0.000000
  156       18.319167     19.085340   0.000000   0.000000
  157       19.075320     19.659485   0.000000   0.000000
  158       19.095798     19.715458   0.000000   0.000000
  159       19.653015     20.302343   0.000000   0.000000
  160       21.216341     21.836522   0.000000   0.000000
  161       21.360514     21.969477   0.000000   0.000000
  162       22.387570     23.023366   0.000000   0.000000
  163       24.062035     24.789819   0.000000   0.000000
  164       24.219577     24.917870   0.000000   0.000000
  165       24.295688     24.995745   0.000000   0.000000
  166       24.336572     25.026550   0.000000   0.000000
  167       24.476860     25.205437   0.000000   0.000000
  168       24.738326     25.438626   0.000000   0.000000
  169       24.864852     25.553527   0.000000   0.000000
  170       24.934562     25.625813   0.000000   0.000000
  171       25.282101     25.935258   0.000000   0.000000
  172       25.464384     26.097691   0.000000   0.000000
  173       25.556197     26.205158   0.000000   0.000000
  174       25.874507     26.459046   0.000000   0.000000
  175       25.974295     26.505860   0.000000   0.000000
  176       26.214153     26.616494   0.000000   0.000000
 
  0.1875000E+00  0.6250000E-01  0.6250000E-01  0.1562500E-01
    1      -45.035270    -42.954725   1.000000   1.000000
    2      -45.022245    -42.858032   1.000000   1.000000
    3      -45.008623    -42.810366   1.000000   1.000000
    4      -45.002805    -42.730032   1.000000   1.000000
    5      -44.998208    -42.439340   1.000000   1.000000
    6      -44.965380    -42.437820   1.000000   1.000000
    7      -44.963402    -42.410608   1.000000   1.000000
    8      -44.936300    -42.399329   1.000000   1.000000
    9      -44.934592    -42.378402   1.000000   1.000000
   10      -44.923763    -42.359456   1.000000   1.000000
   11      -44.909837    -42.326591   1.000000   1.000000
   12      -44.901189    -42.323931   1.000000   1.000000
   13      -44.897725    -42.144143   1.000000   1.000000
   14      -44.889178    -42.098353   1.000000   1.000000
   15      -44.878151    -42.084373   1.000000   1.000000
   16      -44.868081    -42.078454   1.000000   1.000000
   17      -44.859636    -42.073250   1.000000   1.000000
   18      -44.848283    -42.072770   1.000000   1.000000
   19      -44.832425    -42.042247   1.000000   1.000000
   20      -44.825871    -42.038633   1.000000   1.000000
   21      -44.818201    -42.033446   1.000000   1.000000
   22      -44.809484    -41.994258   1.000000   1.000000
   23      -44.803965    -41.986096   1.000000   1.000000
   24      -44.799182    -41.976360   1.000000   1.000000
   25      -44.793490    -41.971865   1.000000   1.000000
   26      -44.776184    -41.967501   1.000000   1.000000
   27      -44.766255    -41.960725   1.000000   1.000000
   28      -44.762683    -41.956136   1.000000   1.000000
   29      -44.760561    -41.947872   1.000000   1.000000
   30      -44.755143    -41.940167   1.000000   1.000000
   31      -44.747247    -41.934137   1.000000   1.000000
   32      -44.739331    -41.931917   1.000000   1.000000
   33      -44.715732    -41.921932   1.000000   1.000000
   34      -44.709018    -41.919797   1.000000   1.000000
   35      -44.701768    -41.906916   1.000000   1.000000
   36      -44.689884    -41.898328   1.000000   1.000000
   37      -44.683993    -41.892240   1.000000   1.000000
   38      -44.681958    -41.885498   1.000000   1.000000
   39      -44.666103    -41.867350   1.000000   1.000000
   40      -44.629559    -41.860242   1.000000   1.000000
   41      -44.616515    -41.857564   1.000000   1.000000
   42      -44.588187    -41.851707   1.000000   1.000000
   43      -44.582610    -41.839475   1.000000   1.000000
   44      -44.577010    -41.832108   1.000000   1.000000
   45      -44.540323    -41.814940   1.000000   1.000000
   46      -44.526043    -41.794411   1.000000   1.000000
   47      -44.525204    -41.786108   1.000000   1.000000
   48      -44.516266    -41.761157   1.000000   1.000000
   49       -2.679034     -2.707758   1.000000   1.000000
   50        1.850563      2.053018   1.000000   1.000000
   51        3.137274      3.586712   1.000000   1.000000
   52        3.330843      3.776806   1.000000   1.000000
   53        3.467191      3.965979   1.000000   1.000000
   54        4.254344      4.906089   1.000000   1.000000
   55        4.583100      5.308046   1.000000   1.000000
   56        4.618264      5.468692   1.000000   1.000000
   57        4.712443      5.793084   1.000000   1.000000
   58        4.753821      5.882809   1.000000   1.000000
   59        4.771780      6.005133   1.000000   1.000000
   60        4.834896      6.103347   1.000000   1.000000
   61        4.876613      6.135470   1.000000   1.000000
   62        4.957238      6.493307   1.000000   1.000000
   63        5.115807      6.575799   1.000000   1.000000
   64        5.304127      6.639519   1.000000   1.000000
   65        5.433639      6.689953   1.000000   1.000000
   66        5.646691      7.123809   1.000000   1.000000
   67        5.719900      7.209005   1.000000   1.000000
   68        5.871248      7.435531   1.000000   1.000000
   69        5.925840      7.515080   1.000000   1.000000
   70        5.972931      7.629861   1.000000   1.000000
   71        6.032125      7.721814   1.000000   1.000000
   72        6.048969      7.903628   1.000000   1.000000
   73        6.098853      7.925910   1.000000   1.000000
   74        6.118891      7.955989   1.000000   1.000000
   75        6.132818      7.992676   1.000000   1.000000
   76        6.198466      8.028500   1.000000   1.000000
   77        6.246936      8.069833   1.000000   1.000000
   78        6.311062      8.141448   1.000000   1.000000
   79        6.364104      8.205554   1.000000   1.000000
   80        6.424201      8.341426   1.000000   1.000000
   81        6.501951      8.453939   1.000000   1.000000
   82        6.676504      8.564014   1.000000   1.000000
   83        6.871378      8.658901   1.000000   1.000000
   84        6.948943      8.876687   1.000000   1.000000
   85        6.965041      8.914426   1.000000   1.000000
   86        7.030757      9.003486   1.000000   1.000002
   87        7.043105      9.072188   1.000000   1.000154
   88        7.091028      9.124410   1.000000   1.001895
   89        7.115201      9.140989   1.000000   1.003680
   90        7.172575      9.199883   1.000000   1.021612
   91        7.206263      9.230541   1.000000   1.034111
   92        7.371227      9.282967   1.000000   0.990237
   93        7.439722      9.297440   1.000000   0.943568
   94        7.506761      9.314842   1.000000   0.860050
   95        7.539151      9.405728   1.000000   0.172668
   96        7.570403      9.439654   1.000000   0.019132
   97        7.678394      9.493544   1.000000  -0.034569
   98        7.717568      9.623255   1.000000  -0.000725
   99        7.748950      9.696051   1.000000  -0.000013
  100        7.844363      9.714855   1.000000  -0.000004
  101        7.893025      9.764432   1.000000  -0.000000
  102        7.966101      9.826900   1.000000  -0.000000
  103        8.004410     10.023381   1.000000  -0.000000
  104        8.057061     10.123922   1.000000  -0.000000
  105        8.092438     10.240495   1.000000  -0.000000
  106        8.120551     10.468988   1.000000  -0.000000
  107        8.145723     10.514356   1.000000  -0.000000
  108        8.159791     10.627071   1.000000  -0.000000
  109        8.203591     10.664989   1.000000  -0.000000
  110        8.245236     10.716132   1.000000  -0.000000
  111        8.275353     10.754311   1.000000  -0.000000
  112        8.297718     10.799640   1.000000  -0.000000
  113        8.307952     10.816384   1.000000  -0.000000
  114        8.351385     10.872393   1.000000  -0.000000
  115        8.376595     10.903907   1.000000  -0.000000
  116        8.393206     10.941827   1.000000  -0.000000
  117        8.400852     10.984248   1.000000  -0.000000
  118        8.411218     11.003549   1.000000  -0.000000
  119        8.463549     11.172487   1.000000  -0.000000
  120        8.481930     11.186161   1.000000  -0.000000
  121        8.546080     11.206473   1.000000  -0.000000
  122        8.672407     11.275342   1.000000  -0.000000
  123        8.697846     11.296195   1.000000  -0.000000
  124        8.811312     11.313764   1.000000  -0.000000
  125        8.941493     11.374397   1.000000  -0.000000
  126        8.973384     11.414079   1.000000  -0.000000
  127        9.058035     11.463197   1.000070  -0.000000
  128        9.090818     11.474948   1.000405  -0.000000
  129        9.108438     11.524118   1.000940  -0.000000
  130        9.224437     11.564056   1.032270  -0.000000
  131        9.264615     11.605334   1.023416  -0.000000
  132        9.298358     11.649421   0.939925  -0.000000
  133        9.381283     11.712581   0.348440  -0.000000
  134        9.538802     11.836993  -0.016113  -0.000000
  135        9.609650     11.871551  -0.001346  -0.000000
  136        9.719737     11.904885  -0.000003  -0.000000
  137        9.928457     11.953033  -0.000000  -0.000000
  138       10.113886     12.036654  -0.000000  -0.000000
  139       10.350516     12.138199  -0.000000   0.000000
  140       10.470950     12.298802  -0.000000   0.000000
  141       10.686797     12.430583  -0.000000   0.000000
  142       12.750102     13.773122   0.000000   0.000000
  143       13.055439     14.176447   0.000000   0.000000
  144       13.348952     14.445120   0.000000   0.000000
  145       14.522964     15.707014   0.000000   0.000000
  146       15.505522     16.638424   0.000000   0.000000
  147       16.037552     17.216391   0.000000   0.000000
  148       16.232686     17.626518   0.000000   0.000000
  149       16.559749     17.846108   0.000000   0.000000
  150       16.716653     17.969728   0.000000   0.000000
  151       17.075080     18.122360   0.000000   0.000000
  152       17.373993     18.327635   0.000000   0.000000
  153       17.711481     18.631068   0.000000   0.000000
  154       18.051114     18.806440   0.000000   0.000000
  155       18.541292     19.205637   0.000000   0.000000
  156       18.691373     19.447851   0.000000   0.000000
  157       19.101652     19.807208   0.000000   0.000000
  158       19.582639     20.255933   0.000000   0.000000
  159       20.167164     20.859274   0.000000   0.000000
  160       20.862228     21.558466   0.000000   0.000000
  161       21.385121     22.034800   0.000000   0.000000
  162       22.718283     23.398016   0.000000   0.000000
  163       22.842147     23.573039   0.000000   0.000000
  164       23.108431     23.779920   0.000000   0.000000
  165       23.286670     23.968810   0.000000   0.000000
  166       23.579151     24.270644   0.000000   0.000000
  167       23.885579     24.589452   0.000000   0.000000
  168       24.361539     25.074840   0.000000   0.000000
  169       24.547615     25.183391   0.000000   0.000000
  170       24.845968     25.464774   0.000000   0.000000
  171       25.029575     25.625722   0.000000   0.000000
  172       25.307867     25.879599   0.000000   0.000000
  173       25.533804     26.088643   0.000000   0.000000
  174       25.736944     26.162679   0.000000   0.000000
  175       25.869373     26.460678   0.000000   0.000000
  176       26.133697     26.552326   0.000000   0.000000
 
  0.3125000E+00  0.6250000E-01  0.6250000E-01  0.1562500E-01
    1      -45.024309    -42.946355   1.000000   1.000000
    2      -45.012272    -42.871522   1.000000   1.000000
    3      -45.001950    -42.804978   1.000000   1.000000
    4      -44.990366    -42.729711   1.000000   1.000000
    5      -44.989681    -42.438308   1.000000   1.000000
    6      -44.969345    -42.438029   1.000000   1.000000
    7      -44.951610    -42.406010   1.000000   1.000000
    8      -44.950376    -42.395921   1.000000   1.000000
    9      -44.943397    -42.376401   1.000000   1.000000
   10      -44.930346    -42.364607   1.000000   1.000000
   11      -44.922633    -42.328900   1.000000   1.000000
   12      -44.906225    -42.324307   1.000000   1.000000
   13      -44.901951    -42.138111   1.000000   1.000000
   14      -44.896673    -42.090795   1.000000   1.000000
   15      -44.885600    -42.085574   1.000000   1.000000
   16      -44.878603    -42.079633   1.000000   1.000000
   17      -44.874317    -42.074999   1.000000   1.000000
   18      -44.858070    -42.073028   1.000000   1.000000
   19      -44.837048    -42.046926   1.000000   1.000000
   20      -44.821266    -42.039559   1.000000   1.000000
   21      -44.812394    -42.035674   1.000000   1.000000
   22      -44.806668    -42.009984   1.000000   1.000000
   23      -44.801412    -41.995457   1.000000   1.000000
   24      -44.793294    -41.980137   1.000000   1.000000
   25      -44.785507    -41.977223   1.000000   1.000000
   26      -44.779171    -41.969788   1.000000   1.000000
   27      -44.770176    -41.961023   1.000000   1.000000
   28      -44.758129    -41.956688   1.000000   1.000000
   29      -44.748775    -41.950284   1.000000   1.000000
   30      -44.748116    -41.946137   1.000000   1.000000
   31      -44.741026    -41.939976   1.000000   1.000000
   32      -44.739334    -41.928749   1.000000   1.000000
   33      -44.718397    -41.920183   1.000000   1.000000
   34      -44.710346    -41.908736   1.000000   1.000000
   35      -44.698236    -41.894132   1.000000   1.000000
   36      -44.688753    -41.887312   1.000000   1.000000
   37      -44.686319    -41.884945   1.000000   1.000000
   38      -44.676264    -41.874181   1.000000   1.000000
   39      -44.657759    -41.864962   1.000000   1.000000
   40      -44.632322    -41.859685   1.000000   1.000000
   41      -44.613827    -41.852730   1.000000   1.000000
   42      -44.593430    -41.843852   1.000000   1.000000
   43      -44.586064    -41.834533   1.000000   1.000000
   44      -44.578605    -41.831268   1.000000   1.000000
   45      -44.542401    -41.822675   1.000000   1.000000
   46      -44.526877    -41.805117   1.000000   1.000000
   47      -44.526209    -41.792964   1.000000   1.000000
   48      -44.517411    -41.769553   1.000000   1.000000
   49       -2.640567     -2.672381   1.000000   1.000000
   50        1.942456      2.139392   1.000000   1.000000
   51        3.097893      3.438642   1.000000   1.000000
   52        3.302052      3.788740   1.000000   1.000000
   53        3.516062      4.006769   1.000000   1.000000
   54        3.967597      4.563503   1.000000   1.000000
   55        4.635162      5.430469   1.000000   1.000000
   56        4.695216      5.592217   1.000000   1.000000
   57        4.779316      5.831070   1.000000   1.000000
   58        4.849515      5.973256   1.000000   1.000000
   59        4.919419      6.016052   1.000000   1.000000
   60        4.961521      6.295073   1.000000   1.000000
   61        4.972760      6.393437   1.000000   1.000000
   62        4.989297      6.476342   1.000000   1.000000
   63        5.170136      6.662044   1.000000   1.000000
   64        5.283475      6.696871   1.000000   1.000000
   65        5.460322      6.752787   1.000000   1.000000
   66        5.512861      7.035193   1.000000   1.000000
   67        5.606724      7.179501   1.000000   1.000000
   68        5.759537      7.257391   1.000000   1.000000
   69        5.864651      7.482689   1.000000   1.000000
   70        5.921320      7.536635   1.000000   1.000000
   71        5.996078      7.686940   1.000000   1.000000
   72        6.050187      7.891031   1.000000   1.000000
   73        6.080463      7.921141   1.000000   1.000000
   74        6.162453      8.016429   1.000000   1.000000
   75        6.231559      8.030989   1.000000   1.000000
   76        6.259536      8.087284   1.000000   1.000000
   77        6.318511      8.131237   1.000000   1.000000
   78        6.345510      8.192514   1.000000   1.000000
   79        6.488580      8.279619   1.000000   1.000000
   80        6.516942      8.315889   1.000000   1.000000
   81        6.566642      8.343216   1.000000   1.000000
   82        6.728871      8.413721   1.000000   1.000000
   83        6.745009      8.531044   1.000000   1.000000
   84        6.833538      8.672034   1.000000   1.000000
   85        6.900412      8.708817   1.000000   1.000000
   86        6.937124      8.814415   1.000000   1.000000
   87        6.986184      8.910832   1.000000   1.000000
   88        6.995765      8.974108   1.000000   1.000000
   89        7.033324      9.016090   1.000000   1.000005
   90        7.145092      9.039836   1.000000   1.000024
   91        7.166353      9.069049   1.000000   1.000130
   92        7.291320      9.134262   1.000000   1.002834
   93        7.359795      9.188281   1.000000   1.016524
   94        7.413766      9.202619   1.000000   1.022870
   95        7.499247      9.270546   1.000000   1.015484
   96        7.539169      9.328413   1.000000   0.774483
   97        7.594505      9.450934   1.000000  -0.007575
   98        7.635536      9.611899   1.000000  -0.001218
   99        7.692800      9.836572   1.000000  -0.000000
  100        7.725203      9.891558   1.000000  -0.000000
  101        7.779389      9.946337   1.000000  -0.000000
  102        7.861288     10.002778   1.000000  -0.000000
  103        7.916247     10.032740   1.000000  -0.000000
  104        7.945990     10.214904   1.000000  -0.000000
  105        8.007466     10.331606   1.000000  -0.000000
  106        8.055835     10.448343   1.000000  -0.000000
  107        8.097209     10.597976   1.000000  -0.000000
  108        8.144961     10.645937   1.000000  -0.000000
  109        8.174766     10.688293   1.000000  -0.000000
  110        8.231064     10.705387   1.000000  -0.000000
  111        8.248292     10.761734   1.000000  -0.000000
  112        8.283062     10.804973   1.000000  -0.000000
  113        8.294044     10.860008   1.000000  -0.000000
  114        8.378027     10.936295   1.000000  -0.000000
  115        8.384549     10.974869   1.000000  -0.000000
  116        8.400491     11.021441   1.000000  -0.000000
  117        8.449289     11.068665   1.000000  -0.000000
  118        8.471944     11.123104   1.000000  -0.000000
  119        8.484163     11.132858   1.000000  -0.000000
  120        8.539080     11.170212   1.000000  -0.000000
  121        8.589018     11.199910   1.000000  -0.000000
  122        8.669510     11.208247   1.000000  -0.000000
  123        8.684974     11.275692   1.000000  -0.000000
  124        8.799587     11.294992   1.000000  -0.000000
  125        8.856904     11.308756   1.000000  -0.000000
  126        8.907714     11.359043   1.000000  -0.000000
  127        9.012616     11.394723   1.000004  -0.000000
  128        9.071728     11.490806   1.000151  -0.000000
  129        9.109562     11.516191   1.000990  -0.000000
  130        9.173344     11.570126   1.010992  -0.000000
  131        9.208130     11.621200   1.025419  -0.000000
  132        9.317448     11.650244   0.844944  -0.000000
  133        9.350526     11.710163   0.604999  -0.000000
  134        9.452795     11.751006  -0.010969  -0.000000
  135        9.607632     11.824699  -0.001470  -0.000000
  136        9.792836     11.909168  -0.000000  -0.000000
  137        9.993045     11.933053  -0.000000  -0.000000
  138       10.237753     12.105597  -0.000000   0.000000
  139       10.735607     12.394575  -0.000000   0.000000
  140       11.170644     12.773092  -0.000000   0.000000
  141       11.417872     12.993763  -0.000000   0.000000
  142       12.652714     13.758674   0.000000   0.000000
  143       13.125596     14.263229   0.000000   0.000000
  144       13.599422     14.703982   0.000000   0.000000
  145       14.341855     15.517833   0.000000   0.000000
  146       14.722809     15.856874   0.000000   0.000000
  147       15.804564     16.739369   0.000000   0.000000
  148       16.431514     17.594372   0.000000   0.000000
  149       16.618119     17.767042   0.000000   0.000000
  150       16.783995     18.000796   0.000000   0.000000
  151       17.042737     18.170474   0.000000   0.000000
  152       17.448098     18.603278   0.000000   0.000000
  153       18.201323     19.099657   0.000000   0.000000
  154       18.433635     19.344952   0.000000   0.000000
  155       18.977993     19.666179   0.000000   0.000000
  156       19.078814     19.895796   0.000000   0.000000
  157       19.802294     20.410875   0.000000   0.000000
  158       20.268884     20.980233   0.000000   0.000000