       N       E                     dE             d eps       ncg     rms          rms(c)
DAV:   1     0.372376210258E+04    0.37238E+04   -0.14229E+05 46512   0.255E+03
DAV:   2     0.318437055463E+03   -0.34053E+04   -0.31849E+04 45056   0.679E+02
DAV:   3    -0.122189320116E+03   -0.44063E+03   -0.40191E+03 46160   0.238E+02
DAV:   4    -0.140684735934E+03   -0.18495E+02   -0.18332E+02 49392   0.510E+01
DAV:   5    -0.140931190534E+03   -0.24645E+00   -0.24642E+00 47824   0.605E+00    0.782E+01
RMM:   6    -0.141721849512E+03   -0.79066E+00   -0.14276E+02 45542   0.330E+01    0.307E+01
RMM:   7    -0.160736056215E+03   -0.19014E+02   -0.26727E+01 51509   0.152E+01    0.703E+01
RMM:   8    -0.139610554874E+03    0.21126E+02   -0.19955E+01 47891   0.106E+01    0.226E+01
RMM:   9    -0.138764235779E+03    0.84632E+00   -0.39300E+00 51331   0.598E+00    0.208E+01
RMM:  10    -0.137246195490E+03    0.15180E+01   -0.19142E+00 47814   0.350E+00    0.608E+00
RMM:  11    -0.137306803352E+03   -0.60608E-01   -0.17162E-01 52567   0.105E+00    0.432E+00
RMM:  12    -0.137435853218E+03   -0.12905E+00   -0.18121E-01 47028   0.962E-01    0.391E+00
RMM:  13    -0.137395974625E+03    0.39879E-01   -0.96808E-02 48831   0.780E-01    0.244E+00
RMM:  14    -0.137384174796E+03    0.11800E-01   -0.15213E-02 50540   0.364E-01    0.852E-01
RMM:  15    -0.137386808787E+03   -0.26340E-02   -0.52298E-03 47234   0.179E-01    0.788E-01
RMM:  16    -0.137384386756E+03    0.24220E-02   -0.22378E-03 47904   0.129E-01    0.333E-01
RMM:  17    -0.137384349490E+03    0.37266E-04   -0.38113E-04 39452   0.601E-02
   1 F= -.13738435E+03 E0= -.13738480E+03  d E =-.137384E+03  mag=    37.5089
       N       E                     dE             d eps       ncg     rms          rms(c)
DAV:   1    -0.137482097906E+03   -0.97711E-01   -0.17691E+01 64784   0.514E+01    0.341E+00
RMM:   2    -0.138390322602E+03   -0.90822E+00   -0.64449E+00 53327   0.657E+00    0.712E+00
RMM:   3    -0.138150819581E+03    0.23950E+00   -0.53220E-01 47606   0.189E+00    0.188E+00
RMM:   4    -0.138131916930E+03    0.18903E-01   -0.19696E-02 57094   0.481E-01    0.744E-01
RMM:   5    -0.138136531903E+03   -0.46150E-02   -0.81063E-03 46386   0.250E-01    0.117E+00
RMM:   6    -0.138129683867E+03    0.68480E-02   -0.76220E-03 49237   0.236E-01    0.334E-01
RMM:   7    -0.138129647746E+03    0.36121E-04   -0.10003E-03 45900   0.103E-01    0.312E-01
RMM:   8    -0.138129199310E+03    0.44844E-03   -0.42710E-04 40126   0.628E-02    0.966E-02
RMM:   9    -0.138129179044E+03    0.20266E-04   -0.47362E-05 30287   0.243E-02
   2 F= -.13812918E+03 E0= -.13812862E+03  d E =-.744830E+00  mag=    37.6023
       N       E                     dE             d eps       ncg     rms          rms(c)
DAV:   1    -0.132701997640E+03    0.54272E+01   -0.15821E+02 64352   0.154E+02    0.103E+01
RMM:   2    -0.144407802388E+03   -0.11706E+02   -0.74460E+01 53564   0.234E+01    0.330E+01
RMM:   3    -0.139466132971E+03    0.49417E+01   -0.59624E+00 49526   0.666E+00    0.510E+00
RMM:   4    -0.139396295827E+03    0.69837E-01   -0.25473E-01 53591   0.169E+00    0.420E+00
RMM:   5    -0.139356199705E+03    0.40096E-01   -0.10561E-01 47350   0.915E-01    0.268E+00
RMM:   6    -0.139327767133E+03    0.28433E-01   -0.18611E-02 52624   0.460E-01    0.156E+00
RMM:   7    -0.139348313852E+03   -0.20547E-01   -0.29567E-02 45834   0.472E-01    0.228E+00
RMM:   8    -0.139322435263E+03    0.25879E-01   -0.19467E-02 50697   0.393E-01    0.461E-01
RMM:   9    -0.139323133567E+03   -0.69830E-03   -0.25280E-03 47095   0.149E-01    0.616E-01
RMM:  10    -0.139321330724E+03    0.18028E-02   -0.99213E-04 45935   0.970E-02    0.136E-01
RMM:  11    -0.139321509118E+03   -0.17839E-03   -0.28217E-04 34764   0.501E-02    0.239E-01
RMM:  12    -0.139321278758E+03    0.23036E-03   -0.19382E-04 33049   0.435E-02    0.440E-02
RMM:  13    -0.139321270586E+03    0.81723E-05   -0.16992E-05 28898   0.149E-02
   3 F= -.13932127E+03 E0= -.13932127E+03  d E =-.193692E+01  mag=    37.6402
       N       E                     dE             d eps       ncg     rms          rms(c)
DAV:   1    -0.138634634644E+03    0.68664E+00   -0.22069E+01 64352   0.579E+01    0.327E+00
RMM:   2    -0.139559141719E+03   -0.92451E+00   -0.76230E+00 53384   0.748E+00    0.554E+00
RMM:   3    -0.139466298141E+03    0.92844E-01   -0.58303E-01 48350   0.194E+00    0.225E+00
RMM:   4    -0.139440867154E+03    0.25431E-01   -0.23323E-02 56011   0.525E-01    0.789E-01
RMM:   5    -0.139440347310E+03    0.51984E-03   -0.51137E-03 46857   0.199E-01    0.811E-01
RMM:   6    -0.139437076160E+03    0.32711E-02   -0.31046E-03 50376   0.171E-01    0.397E-01
RMM:   7    -0.139440047086E+03   -0.29709E-02   -0.37040E-03 44455   0.156E-01    0.848E-01
RMM:   8    -0.139436327983E+03    0.37191E-02   -0.18091E-03 48451   0.129E-01    0.134E-01
RMM:   9    -0.139436290870E+03    0.37113E-04   -0.14614E-04 32664   0.419E-02
   4 F= -.13943629E+03 E0= -.13943604E+03  d E =-.205194E+01  mag=    37.4633
       N       E                     dE             d eps       ncg     rms          rms(c)
DAV:   1    -0.139391530160E+03    0.44798E-01   -0.14357E+00 65232   0.148E+01    0.815E-01
RMM:   2    -0.139444734162E+03   -0.53204E-01   -0.46554E-01 53080   0.195E+00    0.101E+00
RMM:   3    -0.139443715514E+03    0.10186E-02   -0.34282E-02 48014   0.473E-01    0.692E-01
RMM:   4    -0.139441268155E+03    0.24474E-02   -0.18145E-03 51882   0.147E-01    0.203E-01
RMM:   5    -0.139441196807E+03    0.71349E-04   -0.23397E-04 33064   0.511E-02
   5 F= -.13944120E+03 E0= -.13944080E+03  d E =-.205685E+01  mag=    37.4009
       N       E                     dE             d eps       ncg     rms          rms(c)
DAV:   1    -0.139429697540E+03    0.11571E-01   -0.72926E-01 64880   0.119E+01    0.604E-01
RMM:   2    -0.139461521932E+03   -0.31824E-01   -0.27743E-01 52979   0.174E+00    0.787E-01
RMM:   3    -0.139460372396E+03    0.11495E-02   -0.18712E-02 49801   0.408E-01    0.515E-01
RMM:   4    -0.139459222250E+03    0.11501E-02   -0.10588E-03 52483   0.113E-01    0.237E-01
RMM:   5    -0.139458987817E+03    0.23443E-03   -0.13089E-04 30430   0.425E-02    0.116E-01
RMM:   6    -0.139458930589E+03    0.57228E-04   -0.35075E-05 30203   0.235E-02
   6 F= -.13945893E+03 E0= -.13945853E+03  d E =-.177338E-01  mag=    37.3683
       N       E                     dE             d eps       ncg     rms          rms(c)
DAV:   1    -0.139239593866E+03    0.21939E+00   -0.65466E+00 63632   0.357E+01    0.180E+00
RMM:   2    -0.139543911006E+03   -0.30432E+00   -0.25173E+00 53058   0.514E+00    0.296E+00
RMM:   3    -0.139514811355E+03    0.29100E-01   -0.17199E-01 50662   0.123E+00    0.143E+00
RMM:   4    -0.139508847390E+03    0.59640E-02   -0.10104E-02 54618   0.344E-01    0.948E-01
RMM:   5    -0.139504618540E+03    0.42289E-02   -0.28980E-03 46909   0.152E-01    0.337E-01
RMM:   6    -0.139504032117E+03    0.58642E-03   -0.26467E-04 41794   0.637E-02    0.282E-01
RMM:   7    -0.139504027407E+03    0.47098E-05   -0.80293E-04 40784   0.782E-02
   7 F= -.13950403E+03 E0= -.13950364E+03  d E =-.628306E-01  mag=    37.2769
       N       E                     dE             d eps       ncg     rms          rms(c)
DAV:   1    -0.138459766120E+03    0.10443E+01   -0.25969E+01 62656   0.714E+01    0.369E+00
RMM:   2    -0.139697940748E+03   -0.12382E+01   -0.10198E+01 53516   0.103E+01    0.631E+00
RMM:   3    -0.139592772054E+03    0.10517E+00   -0.71134E-01 50341   0.244E+00    0.275E+00
RMM:   4    -0.139570893404E+03    0.21879E-01   -0.40701E-02 55593   0.698E-01    0.187E+00
RMM:   5    -0.139554747706E+03    0.16146E-01   -0.12300E-02 46678   0.306E-01    0.666E-01
RMM:   6    -0.139552657947E+03    0.20898E-02   -0.12556E-03 52320   0.130E-01    0.572E-01
RMM:   7    -0.139552161584E+03    0.49636E-03   -0.23152E-03 45717   0.133E-01    0.580E-01
RMM:   8    -0.139550003820E+03    0.21578E-02   -0.23367E-03 51616   0.159E-01    0.172E-01
RMM:   9    -0.139549946143E+03    0.57677E-04   -0.29213E-04 36738   0.592E-02
   8 F= -.13954995E+03 E0= -.13954956E+03  d E =-.108749E+00  mag=    37.1159
       N       E                     dE             d eps       ncg     rms          rms(c)
DAV:   1    -0.139446113793E+03    0.10389E+00   -0.26605E+00 65360   0.227E+01    0.114E+00
RMM:   2    -0.139563357019E+03   -0.11724E+00   -0.10056E+00 53048   0.332E+00    0.160E+00
RMM:   3    -0.139558146844E+03    0.52102E-02   -0.68061E-02 50288   0.773E-01    0.998E-01
RMM:   4    -0.139554158019E+03    0.39888E-02   -0.38767E-03 54918   0.214E-01    0.508E-01
RMM:   5    -0.139552988520E+03    0.11695E-02   -0.77303E-04 41472   0.805E-02    0.207E-01
RMM:   6    -0.139552795975E+03    0.19254E-03   -0.79845E-05 30275   0.341E-02    0.175E-01
RMM:   7    -0.139552843714E+03   -0.47739E-04   -0.27295E-04 33004   0.507E-02
   9 F= -.13955284E+03 E0= -.13955244E+03  d E =-.111647E+00  mag=    37.0695
       N       E                     dE             d eps       ncg     rms          rms(c)
DAV:   1    -0.139492170772E+03    0.60625E-01   -0.17151E+00 65120   0.185E+01    0.922E-01
RMM:   2    -0.139569558474E+03   -0.77388E-01   -0.66661E-01 52916   0.273E+00    0.127E+00
RMM:   3    -0.139565949071E+03    0.36094E-02   -0.44005E-02 50184   0.641E-01    0.767E-01
RMM:   4    -0.139563501314E+03    0.24478E-02   -0.29433E-03 55380   0.183E-01    0.398E-01
RMM:   5    -0.139562794043E+03    0.70727E-03   -0.36636E-04 36745   0.601E-02    0.165E-01
RMM:   6    -0.139562695100E+03    0.98943E-04   -0.44798E-05 30277   0.263E-02
  10 F= -.13956270E+03 E0= -.13956226E+03  d E =-.985139E-02  mag=    37.0409
       N       E                     dE             d eps       ncg     rms          rms(c)
DAV:   1    -0.139062369734E+03    0.50042E+00   -0.12361E+01 63824   0.495E+01    0.243E+00
RMM:   2    -0.139617563175E+03   -0.55519E+00   -0.47785E+00 53163   0.729E+00    0.341E+00
RMM:   3    -0.139597639245E+03    0.19924E-01   -0.31652E-01 50494   0.170E+00    0.207E+00
RMM:   4    -0.139580744943E+03    0.16894E-01   -0.21668E-02 56196   0.499E-01    0.114E+00
RMM:   5    -0.139574873098E+03    0.58718E-02   -0.35580E-03 47037   0.169E-01    0.471E-01
RMM:   6    -0.139573887166E+03    0.98593E-03   -0.36933E-04 45866   0.740E-02    0.395E-01
RMM:   7    -0.139574259957E+03   -0.37279E-03   -0.15256E-03 44004   0.106E-01    0.546E-01
RMM:   8    -0.139572541608E+03    0.17183E-02   -0.15854E-03 51095   0.127E-01    0.811E-02
RMM:   9    -0.139572545407E+03   -0.37994E-05   -0.11973E-04 32226   0.396E-02
  11 F= -.13957255E+03 E0= -.13957189E+03  d E =-.197017E-01  mag=    36.9561
       N       E                     dE             d eps       ncg     rms          rms(c)
DAV:   1    -0.139503098185E+03    0.69443E-01   -0.18131E+00 65488   0.189E+01    0.950E-01
RMM:   2    -0.139580418913E+03   -0.77321E-01   -0.69547E-01 52777   0.278E+00    0.984E-01
RMM:   3    -0.139582204550E+03   -0.17856E-02   -0.43881E-02 50152   0.649E-01    0.100E+00
RMM:   4    -0.139577280658E+03    0.49239E-02   -0.37132E-03 55315   0.205E-01    0.315E-01
RMM:   5    -0.139576893888E+03    0.38677E-03   -0.23279E-04 34101   0.527E-02    0.169E-01
RMM:   6    -0.139576802011E+03    0.91877E-04   -0.37719E-05 30285   0.246E-02
  12 F= -.13957680E+03 E0= -.13957603E+03  d E =-.425660E-02  mag=    36.9064
       N       E                     dE             d eps       ncg     rms          rms(c)
DAV:   1    -0.139555448995E+03    0.21445E-01   -0.53917E-01 66048   0.104E+01    0.526E-01
RMM:   2    -0.139583385695E+03   -0.27937E-01   -0.21059E-01 52632   0.152E+00    0.110E+00
RMM:   3    -0.139577607105E+03    0.57786E-02   -0.15375E-02 49371   0.387E-01    0.350E-01
RMM:   4    -0.139577450528E+03    0.15658E-03   -0.10347E-03 52450   0.111E-01    0.317E-01
RMM:   5    -0.139576985950E+03    0.46458E-03   -0.21073E-04 32546   0.491E-02    0.117E-01
RMM:   6    -0.139576924946E+03    0.61003E-04   -0.67727E-05 30287   0.306E-02
  13 F= -.13957692E+03 E0= -.13957607E+03  d E =-.437954E-02  mag=    36.8711
       N       E                     dE             d eps       ncg     rms          rms(c)
DAV:   1    -0.139567314223E+03    0.96717E-02   -0.29280E-01 64640   0.729E+00    0.391E-01
RMM:   2    -0.139582028329E+03   -0.14714E-01   -0.10077E-01 52655   0.103E+00    0.917E-01
RMM:   3    -0.139577911250E+03    0.41171E-02   -0.75474E-03 49279   0.266E-01    0.255E-01
RMM:   4    -0.139577848586E+03    0.62664E-04   -0.51572E-04 47320   0.799E-02
  14 F= -.13957785E+03 E0= -.13957702E+03  d E =-.923639E-03  mag=    36.8831
       N       E                     dE             d eps       ncg     rms          rms(c)
DAV:   1    -0.139577402594E+03    0.50866E-03   -0.51622E-03 65584   0.975E-01    0.731E-02
RMM:   2    -0.139577687682E+03   -0.28509E-03   -0.17499E-03 53116   0.142E-01    0.169E-01
RMM:   3    -0.139577564136E+03    0.12355E-03   -0.12951E-04 30917   0.407E-02    0.595E-02
RMM:   4    -0.139577567900E+03   -0.37645E-05   -0.28245E-05 25635   0.211E-02
  15 F= -.13957757E+03 E0= -.13957674E+03  d E =-.642954E-03  mag=    36.8918
