   17   17   99    2
  0.1140904E+02  0.5788500E-09  0.5788500E-09  0.5788500E-09  0.5000000E-16
  1.000000000000000E-004
  CAR 
 unknown system                          
    228     64    176
 
  0.6250000E-01  0.6250000E-01  0.6250000E-01  0.1562500E-01
    1      -45.041356    -42.959684   1.000000   1.000000
    2      -45.027651    -42.847612   1.000000   1.000000
    3      -45.012169    -42.816030   1.000000   1.000000
    4      -45.010417    -42.730272   1.000000   1.000000
    5      -45.002893    -42.440099   1.000000   1.000000
    6      -44.970288    -42.437531   1.000000   1.000000
    7      -44.964424    -42.413865   1.000000   1.000000
    8      -44.928707    -42.401319   1.000000   1.000000
    9      -44.927450    -42.379765   1.000000   1.000000
   10      -44.922130    -42.356258   1.000000   1.000000
   11      -44.901488    -42.325259   1.000000   1.000000
   12      -44.898563    -42.323553   1.000000   1.000000
   13      -44.895382    -42.147974   1.000000   1.000000
   14      -44.886707    -42.104441   1.000000   1.000000
   15      -44.868568    -42.080859   1.000000   1.000000
   16      -44.851308    -42.078146   1.000000   1.000000
   17      -44.847190    -42.072812   1.000000   1.000000
   18      -44.837768    -42.071833   1.000000   1.000000
   19      -44.835555    -42.042395   1.000000   1.000000
   20      -44.830916    -42.035759   1.000000   1.000000
   21      -44.825339    -42.030332   1.000000   1.000000
   22      -44.816907    -41.984779   1.000000   1.000000
   23      -44.808018    -41.981010   1.000000   1.000000
   24      -44.801108    -41.974967   1.000000   1.000000
   25      -44.795714    -41.970031   1.000000   1.000000
   26      -44.776422    -41.962485   1.000000   1.000000
   27      -44.771679    -41.957273   1.000000   1.000000
   28      -44.765785    -41.952528   1.000000   1.000000
   29      -44.763055    -41.945894   1.000000   1.000000
   30      -44.756583    -41.938694   1.000000   1.000000
   31      -44.750862    -41.934561   1.000000   1.000000
   32      -44.739287    -41.926645   1.000000   1.000000
   33      -44.714226    -41.924468   1.000000   1.000000
   34      -44.709727    -41.919080   1.000000   1.000000
   35      -44.701661    -41.915123   1.000000   1.000000
   36      -44.695378    -41.909283   1.000000   1.000000
   37      -44.685996    -41.899007   1.000000   1.000000
   38      -44.680597    -41.896722   1.000000   1.000000
   39      -44.671309    -41.876077   1.000000   1.000000
   40      -44.628484    -41.870507   1.000000   1.000000
   41      -44.618318    -41.855498   1.000000   1.000000
   42      -44.583437    -41.854908   1.000000   1.000000
   43      -44.581252    -41.837109   1.000000   1.000000
   44      -44.576037    -41.830863   1.000000   1.000000
   45      -44.538967    -41.810768   1.000000   1.000000
   46      -44.525628    -41.786927   1.000000   1.000000
   47      -44.524362    -41.783272   1.000000   1.000000
   48      -44.515489    -41.756774   1.000000   1.000000
   49       -2.705471     -2.732144   1.000000   1.000000
   50        1.786708      1.993374   1.000000   1.000000
   51        3.117494      3.611135   1.000000   1.000000
   52        3.414420      3.887480   1.000000   1.000000
   53        3.448320      3.948732   1.000000   1.000000
   54        4.528816      5.188766   1.000000   1.000000
   55        4.543090      5.238596   1.000000   1.000000
   56        4.574405      5.444758   1.000000   1.000000
   57        4.672712      5.733581   1.000000   1.000000
   58        4.676467      5.776733   1.000000   1.000000
   59        4.701818      5.827890   1.000000   1.000000
   60        4.768577      6.009727   1.000000   1.000000
   61        4.823270      6.017620   1.000000   1.000000
   62        4.908922      6.490238   1.000000   1.000000
   63        4.931437      6.541096   1.000000   1.000000
   64        5.378483      6.611717   1.000000   1.000000
   65        5.401641      6.670189   1.000000   1.000000
   66        5.713971      7.164441   1.000000   1.000000
   67        5.763832      7.227196   1.000000   1.000000
   68        5.909238      7.510900   1.000000   1.000000
   69        5.951948      7.515397   1.000000   1.000000
   70        6.029361      7.702956   1.000000   1.000000
   71        6.047506      7.750287   1.000000   1.000000
   72        6.079502      7.809918   1.000000   1.000000
   73        6.102802      7.861625   1.000000   1.000000
   74        6.122888      7.930076   1.000000   1.000000
   75        6.152427      8.023208   1.000000   1.000000
   76        6.185772      8.035829   1.000000   1.000000
   77        6.204493      8.080297   1.000000   1.000000
   78        6.275929      8.090562   1.000000   1.000000
   79        6.335863      8.247826   1.000000   1.000000
   80        6.352909      8.442478   1.000000   1.000000
   81        6.522133      8.586107   1.000000   1.000000
   82        6.664200      8.699047   1.000000   1.000000
   83        6.736642      8.754063   1.000000   1.000000
   84        6.996879      8.944632   1.000000   1.000000
   85        7.006713      8.975013   1.000000   1.000000
   86        7.045594      9.087297   1.000000   1.000340
   87        7.138985      9.116792   1.000000   1.001367
   88        7.178425      9.152379   1.000000   1.005580
   89        7.220050      9.185850   1.000000   1.015534
   90        7.226316      9.219915   1.000000   1.030575
   91        7.320561      9.312888   1.000000   0.870937
   92        7.349990      9.354824   1.000000   0.569282
   93        7.406021      9.396968   1.000000   0.230387
   94        7.431212      9.429647   1.000000   0.052539
   95        7.462760      9.493744   1.000000  -0.034527
   96        7.514172      9.517390   1.000000  -0.025678
   97        7.775927      9.557774   1.000000  -0.009442
   98        7.810405      9.594913   1.000000  -0.002504
   99        7.882026      9.681151   1.000000  -0.000033
  100        7.890025      9.748099   1.000000  -0.000000
  101        7.951010      9.778944   1.000000  -0.000000
  102        8.042445      9.851282   1.000000  -0.000000
  103        8.106383     10.078339   1.000000  -0.000000
  104        8.126664     10.109127   1.000000  -0.000000
  105        8.138398     10.187608   1.000000  -0.000000
  106        8.152056     10.411577   1.000000  -0.000000
  107        8.171928     10.464397   1.000000  -0.000000
  108        8.185185     10.536245   1.000000  -0.000000
  109        8.210627     10.593417   1.000000  -0.000000
  110        8.257534     10.656505   1.000000  -0.000000
  111        8.269857     10.676448   1.000000  -0.000000
  112        8.304221     10.682791   1.000000  -0.000000
  113        8.330133     10.807460   1.000000  -0.000000
  114        8.366146     10.826690   1.000000  -0.000000
  115        8.378392     10.953257   1.000000  -0.000000
  116        8.387635     10.967652   1.000000  -0.000000
  117        8.394112     10.975443   1.000000  -0.000000
  118        8.402097     10.988991   1.000000  -0.000000
  119        8.439885     11.174358   1.000000  -0.000000
  120        8.457217     11.182175   1.000000  -0.000000
  121        8.512350     11.210295   1.000000  -0.000000
  122        8.790316     11.242669   1.000000  -0.000000
  123        8.873701     11.291290   1.000000  -0.000000
  124        8.894592     11.313356   1.000000  -0.000000
  125        9.040657     11.336478   1.000025  -0.000000
  126        9.105362     11.392609   1.000816  -0.000000
  127        9.117349     11.514441   1.001401  -0.000000
  128        9.162190     11.527746   1.007777  -0.000000
  129        9.212352     11.564241   1.027343  -0.000000
  130        9.239252     11.576145   1.035432  -0.000000
  131        9.292575     11.614408   0.961489  -0.000000
  132        9.329122     11.641163   0.769562  -0.000000
  133        9.395353     11.703909   0.241736  -0.000000
  134        9.487751     11.801277  -0.035383  -0.000000
  135        9.540646     11.862485  -0.015369  -0.000000
  136        9.671298     11.907323  -0.000058  -0.000000
  137        9.767757     11.951124  -0.000000  -0.000000
  138        9.896252     11.975876  -0.000000  -0.000000
  139        9.968097     11.993875  -0.000000  -0.000000
  140       10.069517     12.028150  -0.000000  -0.000000
  141       10.218829     12.106356  -0.000000   0.000000
  142       12.835766     13.880515   0.000000   0.000000
  143       12.950116     14.105364   0.000000   0.000000
  144       13.127642     14.206320   0.000000   0.000000
  145       14.623318     15.786901   0.000000   0.000000
  146       15.975620     17.305733   0.000000   0.000000
  147       16.092234     17.520478   0.000000   0.000000
  148       16.197441     17.545178   0.000000   0.000000
  149       16.589107     17.782348   0.000000   0.000000
  150       16.645411     17.822532   0.000000   0.000000
  151       17.055723     18.202882   0.000000   0.000000
  152       17.433008     18.403204   0.000000   0.000000
  153       17.576389     18.470208   0.000000   0.000000
  154       17.814969     18.532770   0.000000   0.000000
  155       18.181025     18.855330   0.000000   0.000000
  156       18.319172     19.085340   0.000000   0.000000
  157       19.075317     19.659479   0.000000   0.000000
  158       19.095798     19.715454   0.000000   0.000000
  159       19.653014     20.302339   0.000000   0.000000
  160       21.216350     21.836529   0.000000   0.000000
  161       21.360516     21.969475   0.000000   0.000000
  162       22.387549     23.023341   0.000000   0.000000
  163       24.062035     24.789813   0.000000   0.000000
  164       24.219576     24.917867   0.000000   0.000000
  165       24.295678     24.995736   0.000000   0.000000
  166       24.336568     25.026542   0.000000   0.000000
  167       24.476861     25.205432   0.000000   0.000000
  168       24.738331     25.438625   0.000000   0.000000
  169       24.864855     25.553526   0.000000   0.000000
  170       24.934565     25.625812   0.000000   0.000000
  171       25.282097     25.935256   0.000000   0.000000
  172       25.464377     26.097688   0.000000   0.000000
  173       25.556199     26.205160   0.000000   0.000000
  174       25.874511     26.459052   0.000000   0.000000
  175       25.974298     26.505861   0.000000   0.000000
  176       26.214163     26.616509   0.000000   0.000000
 
  0.1875000E+00  0.6250000E-01  0.6250000E-01  0.1562500E-01
    1      -45.035272    -42.954732   1.000000   1.000000
    2      -45.022250    -42.858040   1.000000   1.000000
    3      -45.008627    -42.810363   1.000000   1.000000
    4      -45.002810    -42.730043   1.000000   1.000000
    5      -44.998213    -42.439357   1.000000   1.000000
    6      -44.965383    -42.437838   1.000000   1.000000
    7      -44.963399    -42.410622   1.000000   1.000000
    8      -44.936304    -42.399341   1.000000   1.000000
    9      -44.934592    -42.378411   1.000000   1.000000
   10      -44.923768    -42.359468   1.000000   1.000000
   11      -44.909837    -42.326603   1.000000   1.000000
   12      -44.901186    -42.323942   1.000000   1.000000
   13      -44.897717    -42.144149   1.000000   1.000000
   14      -44.889179    -42.098357   1.000000   1.000000
   15      -44.878146    -42.084377   1.000000   1.000000
   16      -44.868082    -42.078461   1.000000   1.000000
   17      -44.859636    -42.073255   1.000000   1.000000
   18      -44.848282    -42.072776   1.000000   1.000000
   19      -44.832429    -42.042252   1.000000   1.000000
   20      -44.825875    -42.038636   1.000000   1.000000
   21      -44.818201    -42.033451   1.000000   1.000000
   22      -44.809478    -41.994265   1.000000   1.000000
   23      -44.803962    -41.986101   1.000000   1.000000
   24      -44.799165    -41.976366   1.000000   1.000000
   25      -44.793490    -41.971870   1.000000   1.000000
   26      -44.776172    -41.967504   1.000000   1.000000
   27      -44.766251    -41.960725   1.000000   1.000000
   28      -44.762674    -41.956145   1.000000   1.000000
   29      -44.760540    -41.947877   1.000000   1.000000
   30      -44.755123    -41.940171   1.000000   1.000000
   31      -44.747235    -41.934138   1.000000   1.000000
   32      -44.739331    -41.931920   1.000000   1.000000
   33      -44.715719    -41.921936   1.000000   1.000000
   34      -44.709012    -41.919797   1.000000   1.000000
   35      -44.701763    -41.906919   1.000000   1.000000
   36      -44.689880    -41.898331   1.000000   1.000000
   37      -44.683986    -41.892245   1.000000   1.000000
   38      -44.681951    -41.885502   1.000000   1.000000
   39      -44.666103    -41.867356   1.000000   1.000000
   40      -44.629551    -41.860243   1.000000   1.000000
   41      -44.616521    -41.857568   1.000000   1.000000
   42      -44.588188    -41.851705   1.000000   1.000000
   43      -44.582613    -41.839476   1.000000   1.000000
   44      -44.577020    -41.832106   1.000000   1.000000
   45      -44.540332    -41.814943   1.000000   1.000000
   46      -44.526051    -41.794410   1.000000   1.000000
   47      -44.525210    -41.786110   1.000000   1.000000
   48      -44.516274    -41.761156   1.000000   1.000000
   49       -2.678985     -2.707718   1.000000   1.000000
   50        1.850565      2.053019   1.000000   1.000000
   51        3.137315      3.586741   1.000000   1.000000
   52        3.330872      3.776836   1.000000   1.000000
   53        3.467239      3.966022   1.000000   1.000000
   54        4.254348      4.906100   1.000000   1.000000
   55        4.583095      5.308049   1.000000   1.000000
   56        4.618261      5.468688   1.000000   1.000000
   57        4.712442      5.793078   1.000000   1.000000
   58        4.753819      5.882806   1.000000   1.000000
   59        4.771782      6.005130   1.000000   1.000000
   60        4.834894      6.103344   1.000000   1.000000
   61        4.876616      6.135464   1.000000   1.000000
   62        4.957238      6.493312   1.000000   1.000000
   63        5.115804      6.575794   1.000000   1.000000
   64        5.304137      6.639521   1.000000   1.000000
   65        5.433644      6.689953   1.000000   1.000000
   66        5.646690      7.123801   1.000000   1.000000
   67        5.719900      7.209001   1.000000   1.000000
   68        5.871246      7.435527   1.000000   1.000000
   69        5.925847      7.515068   1.000000   1.000000
   70        5.972931      7.629853   1.000000   1.000000
   71        6.032124      7.721811   1.000000   1.000000
   72        6.048975      7.903622   1.000000   1.000000
   73        6.098856      7.925908   1.000000   1.000000
   74        6.118896      7.955981   1.000000   1.000000
   75        6.132818      7.992669   1.000000   1.000000
   76        6.198461      8.028496   1.000000   1.000000
   77        6.246933      8.069826   1.000000   1.000000
   78        6.311061      8.141438   1.000000   1.000000
   79        6.364100      8.205539   1.000000   1.000000
   80        6.424198      8.341406   1.000000   1.000000
   81        6.501946      8.453934   1.000000   1.000000
   82        6.676501      8.564007   1.000000   1.000000
   83        6.871375      8.658889   1.000000   1.000000
   84        6.948940      8.876676   1.000000   1.000000
   85        6.965039      8.914419   1.000000   1.000000
   86        7.030755      9.003482   1.000000   1.000002
   87        7.043099      9.072176   1.000000   1.000154
   88        7.091030      9.124396   1.000000   1.001894
   89        7.115201      9.140979   1.000000   1.003678
   90        7.172577      9.199883   1.000000   1.021612
   91        7.206261      9.230536   1.000000   1.034110
   92        7.371232      9.282963   1.000000   0.990248
   93        7.439718      9.297434   1.000000   0.943593
   94        7.506757      9.314840   1.000000   0.860057
   95        7.539150      9.405725   1.000000   0.172689
   96        7.570403      9.439654   1.000000   0.019132
   97        7.678398      9.493551   1.000000  -0.034568
   98        7.717571      9.623251   1.000000  -0.000725
   99        7.748958      9.696061   1.000000  -0.000013
  100        7.844365      9.714854   1.000000  -0.000004
  101        7.893026      9.764432   1.000000  -0.000000
  102        7.966102      9.826910   1.000000  -0.000000
  103        8.004408     10.023368   1.000000  -0.000000
  104        8.057064     10.123917   1.000000  -0.000000
  105        8.092439     10.240497   1.000000  -0.000000
  106        8.120555     10.468991   1.000000  -0.000000
  107        8.145722     10.514357   1.000000  -0.000000
  108        8.159795     10.627070   1.000000  -0.000000
  109        8.203592     10.664986   1.000000  -0.000000
  110        8.245238     10.716131   1.000000  -0.000000
  111        8.275355     10.754312   1.000000  -0.000000
  112        8.297723     10.799634   1.000000  -0.000000
  113        8.307959     10.816384   1.000000  -0.000000
  114        8.351388     10.872391   1.000000  -0.000000
  115        8.376601     10.903909   1.000000  -0.000000
  116        8.393206     10.941820   1.000000  -0.000000
  117        8.400856     10.984245   1.000000  -0.000000
  118        8.411220     11.003549   1.000000  -0.000000
  119        8.463551     11.172484   1.000000  -0.000000
  120        8.481934     11.186153   1.000000  -0.000000
  121        8.546084     11.206472   1.000000  -0.000000
  122        8.672413     11.275342   1.000000  -0.000000
  123        8.697846     11.296185   1.000000  -0.000000
  124        8.811323     11.313760   1.000000  -0.000000
  125        8.941490     11.374396   1.000000  -0.000000
  126        8.973387     11.414076   1.000000  -0.000000
  127        9.058041     11.463197   1.000070  -0.000000
  128        9.090823     11.474939   1.000405  -0.000000
  129        9.108440     11.524115   1.000940  -0.000000
  130        9.224444     11.564050   1.032273  -0.000000
  131        9.264621     11.605331   1.023409  -0.000000
  132        9.298358     11.649418   0.939923  -0.000000
  133        9.381290     11.712575   0.348380  -0.000000
  134        9.538804     11.836989  -0.016112  -0.000000
  135        9.609654     11.871551  -0.001345  -0.000000
  136        9.719743     11.904883  -0.000003  -0.000000
  137        9.928456     11.953029  -0.000000  -0.000000
  138       10.113891     12.036650  -0.000000  -0.000000
  139       10.350518     12.138195  -0.000000   0.000000
  140       10.470952     12.298797  -0.000000   0.000000
  141       10.686796     12.430579  -0.000000   0.000000
  142       12.750071     13.773084   0.000000   0.000000
  143       13.055403     14.176405   0.000000   0.000000
  144       13.348908     14.445073   0.000000   0.000000
  145       14.522922     15.706964   0.000000   0.000000
  146       15.505520     16.638419   0.000000   0.000000
  147       16.037556     17.216392   0.000000   0.000000
  148       16.232683     17.626513   0.000000   0.000000
  149       16.559755     17.846111   0.000000   0.000000
  150       16.716656     17.969727   0.000000   0.000000
  151       17.075091     18.122366   0.000000   0.000000
  152       17.374002     18.327637   0.000000   0.000000
  153       17.711488     18.631081   0.000000   0.000000
  154       18.051119     18.806439   0.000000   0.000000
  155       18.541296     19.205635   0.000000   0.000000
  156       18.691379     19.447855   0.000000   0.000000
  157       19.101646     19.807199   0.000000   0.000000
  158       19.582635     20.255928   0.000000   0.000000
  159       20.167161     20.859269   0.000000   0.000000
  160       20.862231     21.558464   0.000000   0.000000
  161       21.385132     22.034808   0.000000   0.000000
  162       22.718276     23.398004   0.000000   0.000000
  163       22.842155     23.573043   0.000000   0.000000
  164       23.108418     23.779907   0.000000   0.000000
  165       23.286671     23.968809   0.000000   0.000000
  166       23.579147     24.270638   0.000000   0.000000
  167       23.885577     24.589448   0.000000   0.000000
  168       24.361533     25.074830   0.000000   0.000000
  169       24.547606     25.183380   0.000000   0.000000
  170       24.845980     25.464786   0.000000   0.000000
  171       25.029584     25.625732   0.000000   0.000000
  172       25.307872     25.879604   0.000000   0.000000
  173       25.533811     26.088650   0.000000   0.000000
  174       25.736949     26.162684   0.000000   0.000000
  175       25.869376     26.460680   0.000000   0.000000
  176       26.133701     26.552332   0.000000   0.000000
 
  0.3125000E+00  0.6250000E-01  0.6250000E-01  0.1562500E-01
    1      -45.024312    -42.946362   1.000000   1.000000
    2      -45.012278    -42.871528   1.000000   1.000000
    3      -45.001954    -42.804978   1.000000   1.000000
    4      -44.990373    -42.729722   1.000000   1.000000
    5      -44.989687    -42.438326   1.000000   1.000000
    6      -44.969347    -42.438047   1.000000   1.000000
    7      -44.951612    -42.406024   1.000000   1.000000
    8      -44.950375    -42.395932   1.000000   1.000000
    9      -44.943391    -42.376410   1.000000   1.000000
   10      -44.930347    -42.364619   1.000000   1.000000
   11      -44.922637    -42.328913   1.000000   1.000000
   12      -44.906225    -42.324317   1.000000   1.000000
   13      -44.901948    -42.138118   1.000000   1.000000
   14      -44.896666    -42.090797   1.000000   1.000000
   15      -44.885597    -42.085577   1.000000   1.000000
   16      -44.878598    -42.079640   1.000000   1.000000
   17      -44.874316    -42.075003   1.000000   1.000000
   18      -44.858070    -42.073033   1.000000   1.000000
   19      -44.837053    -42.046932   1.000000   1.000000
   20      -44.821256    -42.039564   1.000000   1.000000
   21      -44.812392    -42.035675   1.000000   1.000000
   22      -44.806658    -42.009991   1.000000   1.000000
   23      -44.801412    -41.995458   1.000000   1.000000
   24      -44.793288    -41.980145   1.000000   1.000000
   25      -44.785508    -41.977229   1.000000   1.000000
   26      -44.779161    -41.969793   1.000000   1.000000
   27      -44.770178    -41.961024   1.000000   1.000000
   28      -44.758106    -41.956697   1.000000   1.000000
   29      -44.748764    -41.950287   1.000000   1.000000
   30      -44.748103    -41.946147   1.000000   1.000000
   31      -44.741018    -41.939985   1.000000   1.000000
   32      -44.739332    -41.928743   1.000000   1.000000
   33      -44.718383    -41.920186   1.000000   1.000000
   34      -44.710340    -41.908733   1.000000   1.000000
   35      -44.698230    -41.894140   1.000000   1.000000
   36      -44.688746    -41.887313   1.000000   1.000000
   37      -44.686314    -41.884947   1.000000   1.000000
   38      -44.676254    -41.874184   1.000000   1.000000
   39      -44.657757    -41.864962   1.000000   1.000000
   40      -44.632314    -41.859689   1.000000   1.000000
   41      -44.613833    -41.852735   1.000000   1.000000
   42      -44.593432    -41.843853   1.000000   1.000000
   43      -44.586069    -41.834532   1.000000   1.000000
   44      -44.578616    -41.831270   1.000000   1.000000
   45      -44.542410    -41.822677   1.000000   1.000000
   46      -44.526884    -41.805114   1.000000   1.000000
   47      -44.526216    -41.792965   1.000000   1.000000
   48      -44.517419    -41.769552   1.000000   1.000000
   49       -2.640517     -2.672340   1.000000   1.000000
   50        1.942456      2.139390   1.000000   1.000000
   51        3.097915      3.438656   1.000000   1.000000
   52        3.302095      3.788783   1.000000   1.000000
   53        3.516112      4.006815   1.000000   1.000000
   54        3.967610      4.563521   1.000000   1.000000
   55        4.635156      5.430468   1.000000   1.000000
   56        4.695211      5.592213   1.000000   1.000000
   57        4.779317      5.831067   1.000000   1.000000
   58        4.849516      5.973253   1.000000   1.000000
   59        4.919420      6.016049   1.000000   1.000000
   60        4.961521      6.295071   1.000000   1.000000
   61        4.972764      6.393430   1.000000   1.000000
   62        4.989297      6.476343   1.000000   1.000000
   63        5.170136      6.662042   1.000000   1.000000
   64        5.283478      6.696871   1.000000   1.000000
   65        5.460324      6.752782   1.000000   1.000000
   66        5.512859      7.035187   1.000000   1.000000
   67        5.606726      7.179493   1.000000   1.000000
   68        5.759541      7.257389   1.000000   1.000000
   69        5.864643      7.482676   1.000000   1.000000
   70        5.921320      7.536624   1.000000   1.000000
   71        5.996090      7.686947   1.000000   1.000000
   72        6.050185      7.891019   1.000000   1.000000
   73        6.080466      7.921138   1.000000   1.000000
   74        6.162450      8.016406   1.000000   1.000000
   75        6.231557      8.030977   1.000000   1.000000
   76        6.259534      8.087270   1.000000   1.000000
   77        6.318503      8.131234   1.000000   1.000000
   78        6.345508      8.192515   1.000000   1.000000
   79        6.488583      8.279615   1.000000   1.000000
   80        6.516939      8.315875   1.000000   1.000000
   81        6.566639      8.343210   1.000000   1.000000
   82        6.728869      8.413709   1.000000   1.000000
   83        6.745010      8.531035   1.000000   1.000000
   84        6.833533      8.672027   1.000000   1.000000
   85        6.900413      8.708812   1.000000   1.000000
   86        6.937120      8.814414   1.000000   1.000000
   87        6.986182      8.910820   1.000000   1.000000
   88        6.995763      8.974107   1.000000   1.000000
   89        7.033330      9.016081   1.000000   1.000005
   90        7.145091      9.039837   1.000000   1.000024
   91        7.166351      9.069043   1.000000   1.000130
   92        7.291320      9.134271   1.000000   1.002835
   93        7.359792      9.188283   1.000000   1.016525
   94        7.413767      9.202619   1.000000   1.022871
   95        7.499244      9.270529   1.000000   1.015510
   96        7.539168      9.328404   1.000000   0.774540
   97        7.594506      9.450935   1.000000  -0.007579
   98        7.635541      9.611891   1.000000  -0.001219
   99        7.692800      9.836562   1.000000  -0.000000
  100        7.725209      9.891559   1.000000  -0.000000
  101        7.779401      9.946335   1.000000  -0.000000
  102        7.861291     10.002774   1.000000  -0.000000
  103        7.916250     10.032744   1.000000  -0.000000
  104        7.945993     10.214904   1.000000  -0.000000
  105        8.007470     10.331607   1.000000  -0.000000
  106        8.055838     10.448349   1.000000  -0.000000
  107        8.097217     10.597974   1.000000  -0.000000
  108        8.144958     10.645934   1.000000  -0.000000
  109        8.174768     10.688291   1.000000  -0.000000
  110        8.231063     10.705384   1.000000  -0.000000
  111        8.248296     10.761734   1.000000  -0.000000
  112        8.283069     10.804969   1.000000  -0.000000
  113        8.294041     10.860002   1.000000  -0.000000
  114        8.378029     10.936289   1.000000  -0.000000
  115        8.384548     10.974864   1.000000  -0.000000
  116        8.400494     11.021440   1.000000  -0.000000
  117        8.449294     11.068663   1.000000  -0.000000
  118        8.471946     11.123099   1.000000  -0.000000
  119        8.484165     11.132851   1.000000  -0.000000
  120        8.539084     11.170211   1.000000  -0.000000
  121        8.589019     11.199911   1.000000  -0.000000
  122        8.669515     11.208247   1.000000  -0.000000
  123        8.684970     11.275683   1.000000  -0.000000
  124        8.799592     11.294983   1.000000  -0.000000
  125        8.856900     11.308754   1.000000  -0.000000
  126        8.907722     11.359042   1.000000  -0.000000
  127        9.012618     11.394720   1.000004  -0.000000
  128        9.071735     11.490799   1.000151  -0.000000
  129        9.109565     11.516189   1.000990  -0.000000
  130        9.173354     11.570124   1.010996  -0.000000
  131        9.208134     11.621199   1.025421  -0.000000
  132        9.317456     11.650243   0.844897  -0.000000
  133        9.350531     11.710159   0.604956  -0.000000
  134        9.452801     11.751003  -0.010979  -0.000000
  135        9.607637     11.824697  -0.001469  -0.000000
  136        9.792839     11.909166  -0.000000  -0.000000
  137        9.993045     11.933049  -0.000000  -0.000000
  138       10.237757     12.105594  -0.000000   0.000000
  139       10.735600     12.394563  -0.000000   0.000000
  140       11.170637     12.773078  -0.000000   0.000000
  141       11.417868     12.993756  -0.000000   0.000000
  142       12.652700     13.758657   0.000000   0.000000
  143       13.125564     14.263190   0.000000   0.000000
  144       13.599382     14.703939   0.000000   0.000000
  145       14.341821     15.517795   0.000000   0.000000
  146       14.722805     15.856865   0.000000   0.000000
  147       15.804561     16.739363   0.000000   0.000000
  148       16.431522     17.594361   0.000000   0.000000
  149       16.618115     17.767045   0.000000   0.000000
  150       16.784001     18.000796   0.000000   0.000000
  151       17.042732     18.170468   0.000000   0.000000
  152       17.448094     18.603272   0.000000   0.000000
  153       18.201331     19.099664   0.000000   0.000000
  154       18.433638     19.344950   0.000000   0.000000
  155       18.978002     19.666183   0.000000   0.000000
  156       19.078822     19.895799   0.000000   0.000000
  157       19.802289     20.410870   0.000000   0.000000
  158       20.268883     20.980231   0.000000   0.000000