       N       E                     dE             d eps       ncg     rms          rms(c)
DAV:   1     0.372498795467E+04    0.37250E+04   -0.14228E+05 46480   0.255E+03
DAV:   2     0.318768416267E+03   -0.34062E+04   -0.31853E+04 45056   0.679E+02
DAV:   3    -0.122144323733E+03   -0.44091E+03   -0.40225E+03 46128   0.238E+02
DAV:   4    -0.140683918369E+03   -0.18540E+02   -0.18374E+02 49536   0.511E+01
DAV:   5    -0.140931177988E+03   -0.24726E+00   -0.24723E+00 47696   0.606E+00    0.782E+01
RMM:   6    -0.141717062925E+03   -0.78588E+00   -0.14269E+02 45549   0.330E+01    0.307E+01
RMM:   7    -0.160741221402E+03   -0.19024E+02   -0.26723E+01 51506   0.152E+01    0.703E+01
RMM:   8    -0.139610514949E+03    0.21131E+02   -0.19946E+01 47902   0.106E+01    0.226E+01
RMM:   9    -0.138764135221E+03    0.84638E+00   -0.39305E+00 51327   0.598E+00    0.208E+01
RMM:  10    -0.137245997864E+03    0.15181E+01   -0.19142E+00 47819   0.350E+00    0.608E+00
RMM:  11    -0.137306684633E+03   -0.60687E-01   -0.17144E-01 52570   0.105E+00    0.433E+00
RMM:  12    -0.137435157378E+03   -0.12847E+00   -0.18128E-01 47025   0.961E-01    0.389E+00
RMM:  13    -0.137396217354E+03    0.38940E-01   -0.96530E-02 48835   0.779E-01    0.245E+00
RMM:  14    -0.137384131620E+03    0.12086E-01   -0.15312E-02 50528   0.365E-01    0.845E-01
RMM:  15    -0.137385827570E+03   -0.16959E-02   -0.42529E-03 47565   0.160E-01    0.647E-01
RMM:  16    -0.137384408532E+03    0.14190E-02   -0.16073E-03 45658   0.110E-01    0.339E-01
RMM:  17    -0.137384347000E+03    0.61532E-04   -0.38413E-04 39422   0.604E-02
   1 F= -.13738435E+03 E0= -.13738480E+03  d E =-.137384E+03  mag=    37.5144
       N       E                     dE             d eps       ncg     rms          rms(c)
DAV:   1    -0.137481931181E+03   -0.97523E-01   -0.17688E+01 64768   0.514E+01    0.340E+00
RMM:   2    -0.138389433921E+03   -0.90750E+00   -0.64449E+00 53337   0.656E+00    0.711E+00
RMM:   3    -0.138150824298E+03    0.23861E+00   -0.53021E-01 47568   0.189E+00    0.188E+00
RMM:   4    -0.138131888571E+03    0.18936E-01   -0.19664E-02 57133   0.481E-01    0.743E-01
RMM:   5    -0.138136424636E+03   -0.45361E-02   -0.80257E-03 46381   0.249E-01    0.116E+00
RMM:   6    -0.138129679250E+03    0.67454E-02   -0.75818E-03 49210   0.235E-01    0.336E-01
RMM:   7    -0.138129607611E+03    0.71639E-04   -0.98718E-04 45889   0.102E-01
   2 F= -.13812961E+03 E0= -.13812905E+03  d E =-.745261E+00  mag=    37.6027
       N       E                     dE             d eps       ncg     rms          rms(c)
DAV:   1    -0.132692058716E+03    0.54376E+01   -0.15811E+02 64256   0.154E+02    0.103E+01
RMM:   2    -0.144401215854E+03   -0.11709E+02   -0.74592E+01 53561   0.234E+01    0.329E+01
RMM:   3    -0.139464319981E+03    0.49369E+01   -0.59596E+00 49529   0.665E+00    0.511E+00
RMM:   4    -0.139393327839E+03    0.70992E-01   -0.25278E-01 53720   0.168E+00    0.413E+00
RMM:   5    -0.139356988044E+03    0.36340E-01   -0.10383E-01 47331   0.906E-01    0.271E+00
RMM:   6    -0.139327570100E+03    0.29418E-01   -0.18907E-02 52619   0.462E-01    0.155E+00
RMM:   7    -0.139346186747E+03   -0.18617E-01   -0.28281E-02 45971   0.466E-01    0.217E+00
RMM:   8    -0.139321997627E+03    0.24189E-01   -0.18734E-02 50563   0.380E-01    0.358E-01
RMM:   9    -0.139322857320E+03   -0.85969E-03   -0.16696E-03 45312   0.125E-01    0.565E-01
RMM:  10    -0.139321332626E+03    0.15247E-02   -0.90029E-04 45311   0.904E-02    0.139E-01
RMM:  11    -0.139321373873E+03   -0.41247E-04   -0.14355E-04 31941   0.410E-02
   3 F= -.13932137E+03 E0= -.13932139E+03  d E =-.193703E+01  mag=    37.6508
       N       E                     dE             d eps       ncg     rms          rms(c)
DAV:   1    -0.138636436780E+03    0.68490E+00   -0.21931E+01 64288   0.578E+01    0.327E+00
RMM:   2    -0.139556942927E+03   -0.92051E+00   -0.75967E+00 53389   0.747E+00    0.550E+00
RMM:   3    -0.139466180584E+03    0.90762E-01   -0.58326E-01 48411   0.194E+00    0.225E+00
RMM:   4    -0.139440765645E+03    0.25415E-01   -0.23106E-02 55970   0.523E-01    0.792E-01
RMM:   5    -0.139440151243E+03    0.61440E-03   -0.50955E-03 46901   0.199E-01    0.801E-01
RMM:   6    -0.139436891600E+03    0.32596E-02   -0.29968E-03 50439   0.169E-01    0.377E-01
RMM:   7    -0.139439964524E+03   -0.30729E-02   -0.35544E-03 44520   0.154E-01    0.850E-01
RMM:   8    -0.139436239270E+03    0.37253E-02   -0.18856E-03 48115   0.129E-01    0.133E-01
RMM:   9    -0.139436198748E+03    0.40522E-04   -0.14505E-04 33002   0.419E-02
   4 F= -.13943620E+03 E0= -.13943595E+03  d E =-.205185E+01  mag=    37.4639
       N       E                     dE             d eps       ncg     rms          rms(c)
DAV:   1    -0.139390116832E+03    0.46122E-01   -0.14771E+00 65264   0.150E+01    0.826E-01
RMM:   2    -0.139444859913E+03   -0.54743E-01   -0.47902E-01 53083   0.198E+00    0.103E+00
RMM:   3    -0.139443800423E+03    0.10595E-02   -0.35262E-02 48022   0.480E-01    0.702E-01
RMM:   4    -0.139441284302E+03    0.25161E-02   -0.18640E-03 51963   0.149E-01    0.206E-01
RMM:   5    -0.139441211056E+03    0.73245E-04   -0.24201E-04 33253   0.518E-02
   5 F= -.13944121E+03 E0= -.13944082E+03  d E =-.205686E+01  mag=    37.4007
       N       E                     dE             d eps       ncg     rms          rms(c)
DAV:   1    -0.139429692686E+03    0.11592E-01   -0.72972E-01 64848   0.119E+01    0.604E-01
RMM:   2    -0.139461539372E+03   -0.31847E-01   -0.27764E-01 52978   0.174E+00    0.787E-01
RMM:   3    -0.139460382798E+03    0.11566E-02   -0.18730E-02 49800   0.408E-01    0.515E-01
RMM:   4    -0.139459230422E+03    0.11524E-02   -0.10587E-03 52497   0.113E-01    0.235E-01
RMM:   5    -0.139458999704E+03    0.23072E-03   -0.12975E-04 30424   0.424E-02    0.117E-01
RMM:   6    -0.139458942097E+03    0.57606E-04   -0.35280E-05 30206   0.236E-02
   6 F= -.13945894E+03 E0= -.13945854E+03  d E =-.177310E-01  mag=    37.3680
       N       E                     dE             d eps       ncg     rms          rms(c)
DAV:   1    -0.139239386951E+03    0.21961E+00   -0.65500E+00 63616   0.357E+01    0.180E+00
RMM:   2    -0.139544008057E+03   -0.30462E+00   -0.25196E+00 53057   0.514E+00    0.296E+00
RMM:   3    -0.139514834071E+03    0.29174E-01   -0.17223E-01 50664   0.123E+00    0.143E+00
RMM:   4    -0.139508873405E+03    0.59607E-02   -0.10103E-02 54619   0.344E-01    0.949E-01
RMM:   5    -0.139504638517E+03    0.42349E-02   -0.29029E-03 46910   0.152E-01    0.337E-01
RMM:   6    -0.139504051827E+03    0.58669E-03   -0.26482E-04 41809   0.637E-02    0.282E-01
RMM:   7    -0.139504046889E+03    0.49382E-05   -0.80278E-04 40789   0.782E-02
   7 F= -.13950405E+03 E0= -.13950366E+03  d E =-.628358E-01  mag=    37.2766
       N       E                     dE             d eps       ncg     rms          rms(c)
DAV:   1    -0.138459084750E+03    0.10450E+01   -0.25985E+01 62688   0.714E+01    0.369E+00
RMM:   2    -0.139698012632E+03   -0.12389E+01   -0.10205E+01 53516   0.103E+01    0.631E+00
RMM:   3    -0.139592811574E+03    0.10520E+00   -0.71182E-01 50338   0.244E+00    0.275E+00
RMM:   4    -0.139570915379E+03    0.21896E-01   -0.40747E-02 55596   0.698E-01    0.187E+00
RMM:   5    -0.139554760611E+03    0.16155E-01   -0.12306E-02 46678   0.306E-01    0.666E-01
RMM:   6    -0.139552669562E+03    0.20910E-02   -0.12564E-03 52323   0.130E-01    0.572E-01
RMM:   7    -0.139552173045E+03    0.49652E-03   -0.23163E-03 45717   0.133E-01    0.580E-01
RMM:   8    -0.139550013828E+03    0.21592E-02   -0.23392E-03 51613   0.159E-01    0.172E-01
RMM:   9    -0.139549956055E+03    0.57773E-04   -0.29248E-04 36752   0.592E-02
   8 F= -.13954996E+03 E0= -.13954957E+03  d E =-.108745E+00  mag=    37.1156
       N       E                     dE             d eps       ncg     rms          rms(c)
DAV:   1    -0.139446448723E+03    0.10357E+00   -0.26511E+00 65328   0.227E+01    0.114E+00
RMM:   2    -0.139563309125E+03   -0.11686E+00   -0.10024E+00 53048   0.332E+00    0.160E+00
RMM:   3    -0.139558131303E+03    0.51778E-02   -0.67878E-02 50305   0.772E-01    0.996E-01
RMM:   4    -0.139554152381E+03    0.39789E-02   -0.38537E-03 54905   0.213E-01    0.507E-01
RMM:   5    -0.139552987253E+03    0.11651E-02   -0.76985E-04 41454   0.803E-02    0.207E-01
RMM:   6    -0.139552795363E+03    0.19189E-03   -0.79567E-05 30275   0.341E-02    0.175E-01
RMM:   7    -0.139552842993E+03   -0.47630E-04   -0.27189E-04 32970   0.506E-02
   9 F= -.13955284E+03 E0= -.13955244E+03  d E =-.111632E+00  mag=    37.0693
       N       E                     dE             d eps       ncg     rms          rms(c)
DAV:   1    -0.139492193319E+03    0.60602E-01   -0.17147E+00 65088   0.185E+01    0.921E-01
RMM:   2    -0.139569569735E+03   -0.77376E-01   -0.66637E-01 52917   0.273E+00    0.127E+00
RMM:   3    -0.139565944488E+03    0.36252E-02   -0.43999E-02 50186   0.641E-01    0.766E-01
RMM:   4    -0.139563501471E+03    0.24430E-02   -0.29411E-03 55380   0.183E-01    0.398E-01
RMM:   5    -0.139562793934E+03    0.70754E-03   -0.36650E-04 36744   0.601E-02    0.165E-01
RMM:   6    -0.139562694966E+03    0.98968E-04   -0.44868E-05 30277   0.263E-02
  10 F= -.13956269E+03 E0= -.13956225E+03  d E =-.985197E-02  mag=    37.0408
       N       E                     dE             d eps       ncg     rms          rms(c)
DAV:   1    -0.139063558049E+03    0.49924E+00   -0.12333E+01 63824   0.494E+01    0.243E+00
RMM:   2    -0.139617547207E+03   -0.55399E+00   -0.47670E+00 53165   0.728E+00    0.341E+00
RMM:   3    -0.139597543689E+03    0.20004E-01   -0.31583E-01 50488   0.170E+00    0.206E+00
RMM:   4    -0.139580720062E+03    0.16824E-01   -0.21623E-02 56200   0.499E-01    0.114E+00
RMM:   5    -0.139574854974E+03    0.58651E-02   -0.35539E-03 47033   0.169E-01    0.470E-01
RMM:   6    -0.139573871082E+03    0.98389E-03   -0.36932E-04 45861   0.740E-02    0.395E-01
RMM:   7    -0.139574239027E+03   -0.36795E-03   -0.15196E-03 43981   0.106E-01    0.544E-01
RMM:   8    -0.139572528665E+03    0.17104E-02   -0.15769E-03 51107   0.127E-01    0.811E-02
RMM:   9    -0.139572532809E+03   -0.41444E-05   -0.11954E-04 32185   0.395E-02
  11 F= -.13957253E+03 E0= -.13957188E+03  d E =-.196898E-01  mag=    36.9568
       N       E                     dE             d eps       ncg     rms          rms(c)
DAV:   1    -0.139502709726E+03    0.69819E-01   -0.18241E+00 65504   0.189E+01    0.952E-01
RMM:   2    -0.139580366247E+03   -0.77657E-01   -0.69899E-01 52781   0.279E+00    0.980E-01
RMM:   3    -0.139582254557E+03   -0.18883E-02   -0.44071E-02 50137   0.651E-01    0.101E+00
RMM:   4    -0.139577278916E+03    0.49756E-02   -0.37434E-03 55329   0.206E-01    0.315E-01
RMM:   5    -0.139576894187E+03    0.38473E-03   -0.23242E-04 34104   0.526E-02    0.170E-01
RMM:   6    -0.139576801648E+03    0.92539E-04   -0.37909E-05 30285   0.246E-02
  12 F= -.13957680E+03 E0= -.13957603E+03  d E =-.426884E-02  mag=    36.9065
       N       E                     dE             d eps       ncg     rms          rms(c)
DAV:   1    -0.139555703838E+03    0.21190E-01   -0.53223E-01 66016   0.103E+01    0.524E-01
RMM:   2    -0.139583376027E+03   -0.27672E-01   -0.20800E-01 52633   0.151E+00    0.110E+00
RMM:   3    -0.139577575713E+03    0.58003E-02   -0.15247E-02 49372   0.385E-01    0.347E-01
RMM:   4    -0.139577423699E+03    0.15201E-03   -0.10185E-03 52378   0.110E-01    0.315E-01
RMM:   5    -0.139576964599E+03    0.45910E-03   -0.20800E-04 32464   0.489E-02    0.117E-01
RMM:   6    -0.139576905376E+03    0.59223E-04   -0.67742E-05 30287   0.306E-02
  13 F= -.13957691E+03 E0= -.13957605E+03  d E =-.437257E-02  mag=    36.8711
       N       E                     dE             d eps       ncg     rms          rms(c)
DAV:   1    -0.139567249205E+03    0.97154E-02   -0.29536E-01 64656   0.732E+00    0.393E-01
RMM:   2    -0.139582056595E+03   -0.14807E-01   -0.10148E-01 52641   0.104E+00    0.919E-01
RMM:   3    -0.139577911956E+03    0.41446E-02   -0.75615E-03 49258   0.266E-01    0.255E-01
RMM:   4    -0.139577849275E+03    0.62681E-04   -0.52210E-04 47375   0.803E-02
  14 F= -.13957785E+03 E0= -.13957702E+03  d E =-.943899E-03  mag=    36.8830
       N       E                     dE             d eps       ncg     rms          rms(c)
DAV:   1    -0.139577394741E+03    0.51722E-03   -0.53897E-03 65616   0.996E-01    0.738E-02
RMM:   2    -0.139577689720E+03   -0.29498E-03   -0.18226E-03 53150   0.145E-01    0.170E-01
RMM:   3    -0.139577564179E+03    0.12554E-03   -0.13338E-04 30943   0.413E-02    0.600E-02
RMM:   4    -0.139577567745E+03   -0.35660E-05   -0.28625E-05 25687   0.212E-02
  15 F= -.13957757E+03 E0= -.13957674E+03  d E =-.662369E-03  mag=    36.8916
