unknown system                          
           1
     5.788500    0.000000    0.000000
     0.000000    5.788500    0.000000
     0.000000    0.000000    5.788500
   Fe   C 
  16   1
Direct configuration=     1
   0.00000000  0.00000000  0.00000000
   0.25000000  0.25000000  0.25000000
   0.00000000  0.00000000  0.50000000
   0.25000000  0.25000000  0.75000000
   0.00000000  0.50000000  0.00000000
   0.25000000  0.75000000  0.25000000
   0.00000000  0.50000000  0.50000000
   0.25000000  0.75000000  0.75000000
   0.50000000  0.00000000  0.00000000
   0.75000000  0.25000000  0.25000000
   0.50000000  0.00000000  0.50000000
   0.75000000  0.25000000  0.75000000
   0.50000000  0.50000000  0.00000000
   0.75000000  0.75000000  0.25000000
   0.50000000  0.50000000  0.50000000
   0.75000000  0.75000000  0.75000000
   0.00000000  0.25000000  0.37500000
Direct configuration=     2
  -0.00000000 -0.00027405 -0.00024667
   0.25487293  0.25000000  0.24741672
  -0.00000000 -0.00487435  0.50258444
   0.25027358  0.25000000  0.75024587
  -0.00000000  0.50027405 -0.00024667
   0.25006754  0.75000000  0.25000333
  -0.00000000  0.50487435  0.50258444
   0.25015816  0.75000000  0.75016807
   0.50000000  0.00000000  0.00000000
   0.74512707  0.25000000  0.24741672
   0.50000000  0.00000000  0.50000000
   0.74972642  0.25000000  0.75024587
   0.50000000  0.50000000  0.00000000
   0.74993246  0.75000000  0.25000333
   0.50000000  0.50000000  0.50000000
   0.74984184  0.75000000  0.75016807
   0.00000000  0.25000000  0.37500000
Direct configuration=     3
  -0.00000000 -0.00109621 -0.00098668
   0.26949170  0.25000000  0.23966687
  -0.00000000 -0.01949739  0.51033776
   0.25109432  0.25000000  0.75098350
  -0.00000000  0.50109621 -0.00098668
   0.25027014  0.75000000  0.25001331
  -0.00000000  0.51949739  0.51033776
   0.25063264  0.75000000  0.75067226
   0.50000000  0.00000000  0.00000000
   0.73050830  0.25000000  0.23966687
   0.50000000  0.00000000  0.50000000
   0.74890568  0.25000000  0.75098350
   0.50000000  0.50000000  0.00000000
   0.74972986  0.75000000  0.25001331
   0.50000000  0.50000000  0.50000000
   0.74936736  0.75000000  0.75067226
   0.00000000  0.25000000  0.37500000
Direct configuration=     4
  -0.00000000 -0.00140135 -0.00126134
   0.27491744  0.25000000  0.23679053
  -0.00000000 -0.02492471  0.51321540
   0.25139894  0.25000000  0.75125727
  -0.00000000  0.50140135 -0.00126134
   0.25034534  0.75000000  0.25001701
  -0.00000000  0.52492471  0.51321540
   0.25080874  0.75000000  0.75085939
   0.50000000  0.00000000  0.00000000
   0.72508256  0.25000000  0.23679053
   0.50000000  0.00000000  0.50000000
   0.74860106  0.25000000  0.75125727
   0.50000000  0.50000000  0.00000000
   0.74965466  0.75000000  0.25001701
   0.50000000  0.50000000  0.50000000
   0.74919126  0.75000000  0.75085939
   0.00000000  0.25000000  0.37500000
Direct configuration=     5
  -0.00000000 -0.00148013 -0.00133225
   0.27631826  0.25000000  0.23604791
  -0.00000000 -0.02632593  0.51395835
   0.25147759  0.25000000  0.75132795
  -0.00000000  0.50148013 -0.00133225
   0.25036475  0.75000000  0.25001797
  -0.00000000  0.52632593  0.51395835
   0.25085421  0.75000000  0.75090771
   0.50000000  0.00000000  0.00000000
   0.72368174  0.25000000  0.23604791
   0.50000000  0.00000000  0.50000000
   0.74852241  0.25000000  0.75132795
   0.50000000  0.50000000  0.00000000
   0.74963525  0.75000000  0.25001797
   0.50000000  0.50000000  0.50000000
   0.74914579  0.75000000  0.75090771
   0.00000000  0.25000000  0.37500000
Direct configuration=     6
  -0.00000000 -0.00125678 -0.00108706
   0.27672704  0.25000000  0.23661605
  -0.00000000 -0.02676839  0.51342653
   0.25125174  0.25000000  0.75109761
  -0.00000000  0.50125678 -0.00108706
   0.25060835  0.75000000  0.25003103
  -0.00000000  0.52676839  0.51342653
   0.25163998  0.75000000  0.75174731
   0.50000000  0.00000000  0.00000000
   0.72327296  0.25000000  0.23661605
   0.50000000  0.00000000  0.50000000
   0.74874826  0.25000000  0.75109761
   0.50000000  0.50000000  0.00000000
   0.74939165  0.75000000  0.25003103
   0.50000000  0.50000000  0.50000000
   0.74836002  0.75000000  0.75174731
   0.00000000  0.25000000  0.37500000
Direct configuration=     7
  -0.00000000 -0.00058672 -0.00035147
   0.27795338  0.25000000  0.23832046
  -0.00000000 -0.02809575  0.51183109
   0.25057421  0.25000000  0.75040661
  -0.00000000  0.50058672 -0.00035147
   0.25133915  0.75000000  0.25007024
  -0.00000000  0.52809575  0.51183109
   0.25399729  0.75000000  0.75426610
   0.50000000  0.00000000  0.00000000
   0.72204662  0.25000000  0.23832046
   0.50000000  0.00000000  0.50000000
   0.74942579  0.25000000  0.75040661
   0.50000000  0.50000000  0.00000000
   0.74866085  0.75000000  0.25007024
   0.50000000  0.50000000  0.50000000
   0.74600271  0.75000000  0.75426610
   0.00000000  0.25000000  0.37500000
Direct configuration=     8
   0.00000000  0.00075340  0.00111969
   0.28040605  0.25000000  0.24172927
   0.00000000 -0.03075047  0.50864019
   0.24921913  0.25000000  0.74902459
   0.00000000  0.49924660  0.00111969
   0.25280075  0.75000000  0.25014864
   0.00000000  0.53075047  0.50864019
   0.25871193  0.75000000  0.75930370
   0.50000000  0.00000000  0.00000000
   0.71959395  0.25000000  0.24172927
   0.50000000  0.00000000  0.50000000
   0.75078087  0.25000000  0.74902459
   0.50000000  0.50000000  0.00000000
   0.74719925  0.75000000  0.25014864
   0.50000000  0.50000000  0.50000000
   0.74128807  0.75000000  0.75930370
   0.00000000  0.25000000  0.37500000
Direct configuration=     9
   0.00000000  0.00117932  0.00158726
   0.28118558  0.25000000  0.24281268
   0.00000000 -0.03159420  0.50762605
   0.24878846  0.25000000  0.74858535
   0.00000000  0.49882068  0.00158726
   0.25326528  0.75000000  0.25017355
   0.00000000  0.53159420  0.50762605
   0.26021036  0.75000000  0.76090478
   0.50000000  0.00000000  0.00000000
   0.71881442  0.25000000  0.24281268
   0.50000000  0.00000000  0.50000000
   0.75121154  0.25000000  0.74858535
   0.50000000  0.50000000  0.00000000
   0.74673472  0.75000000  0.25017355
   0.50000000  0.50000000  0.50000000
   0.73978964  0.75000000  0.76090478
   0.00000000  0.25000000  0.37500000
Direct configuration=    10
   0.00000000  0.00194078  0.00229395
   0.28101991  0.25000000  0.24433076
   0.00000000 -0.03248270  0.50735601
   0.24788966  0.25000000  0.74814568
   0.00000000  0.49805922  0.00229395
   0.25366141  0.75000000  0.24997279
   0.00000000  0.53248270  0.50735601
   0.25941857  0.75000000  0.76106335
   0.50000000  0.00000000  0.00000000
   0.71898009  0.25000000  0.24433076
   0.50000000  0.00000000  0.50000000
   0.75211034  0.25000000  0.74814568
   0.50000000  0.50000000  0.00000000
   0.74633859  0.75000000  0.24997279
   0.50000000  0.50000000  0.50000000
   0.74058143  0.75000000  0.76106335
   0.00000000  0.25000000  0.37500000
Direct configuration=    11
   0.00000000  0.00398521  0.00419132
   0.28057512  0.25000000  0.24840663
   0.00000000 -0.03486820  0.50663101
   0.24547651  0.25000000  0.74696521
   0.00000000  0.49601479  0.00419132
   0.25472496  0.75000000  0.24943375
   0.00000000  0.53486820  0.50663101
   0.25729273  0.75000000  0.76148910
   0.50000000  0.00000000  0.00000000
   0.71942488  0.25000000  0.24840663
   0.50000000  0.00000000  0.50000000
   0.75452349  0.25000000  0.74696521
   0.50000000  0.50000000  0.00000000
   0.74527504  0.75000000  0.24943375
   0.50000000  0.50000000  0.50000000
   0.74270727  0.75000000  0.76148910
   0.00000000  0.25000000  0.37500000
Direct configuration=    12
   0.00000000  0.00462622  0.00519909
   0.28206624  0.25000000  0.24873962
   0.00000000 -0.03483806  0.50641014
   0.24481564  0.25000000  0.74691142
   0.00000000  0.49537378  0.00519909
   0.25517060  0.75000000  0.24870339
   0.00000000  0.53483806  0.50641014
   0.25605824  0.75000000  0.76154988
   0.50000000  0.00000000  0.00000000
   0.71793376  0.25000000  0.24873962
   0.50000000  0.00000000  0.50000000
   0.75518436  0.25000000  0.74691142
   0.50000000  0.50000000  0.00000000
   0.74482940  0.75000000  0.24870339
   0.50000000  0.50000000  0.50000000
   0.74394176  0.75000000  0.76154988
   0.00000000  0.25000000  0.37500000
Direct configuration=    13
   0.00000000  0.00497230  0.00574317
   0.28287127  0.25000000  0.24891939
   0.00000000 -0.03482179  0.50629089
   0.24445884  0.25000000  0.74688237
   0.00000000  0.49502770  0.00574317
   0.25541120  0.75000000  0.24830909
   0.00000000  0.53482179  0.50629089
   0.25539176  0.75000000  0.76158270
   0.50000000  0.00000000  0.00000000
   0.71712873  0.25000000  0.24891939
   0.50000000  0.00000000  0.50000000
   0.75554116  0.25000000  0.74688237
   0.50000000  0.50000000  0.00000000
   0.74458880  0.75000000  0.24830909
   0.50000000  0.50000000  0.50000000
   0.74460824  0.75000000  0.76158270
   0.00000000  0.25000000  0.37500000
Direct configuration=    14
   0.00000000  0.00517298  0.00630817
   0.28278073  0.25000000  0.24883800
   0.00000000 -0.03419475  0.50595907
   0.24469518  0.25000000  0.74709363
   0.00000000  0.49482702  0.00630817
   0.25540360  0.75000000  0.24817998
   0.00000000  0.53419475  0.50595907
   0.25529001  0.75000000  0.76157268
   0.50000000  0.00000000  0.00000000
   0.71721927  0.25000000  0.24883800
   0.50000000  0.00000000  0.50000000
   0.75530482  0.25000000  0.74709363
   0.50000000  0.50000000  0.00000000
   0.74459640  0.75000000  0.24817998
   0.50000000  0.50000000  0.50000000
   0.74470999  0.75000000  0.76157268
   0.00000000  0.25000000  0.37500000
Direct configuration=    15
   0.00000000  0.00519933  0.00638236
   0.28276884  0.25000000  0.24882731
   0.00000000 -0.03411241  0.50591549
   0.24472622  0.25000000  0.74712137
   0.00000000  0.49480067  0.00638236
   0.25540261  0.75000000  0.24816302
   0.00000000  0.53411241  0.50591549
   0.25527664  0.75000000  0.76157136
   0.50000000  0.00000000  0.00000000
   0.71723116  0.25000000  0.24882731
   0.50000000  0.00000000  0.50000000
   0.75527378  0.25000000  0.74712137
   0.50000000  0.50000000  0.00000000
   0.74459739  0.75000000  0.24816302
   0.50000000  0.50000000  0.50000000
   0.74472336  0.75000000  0.76157136
   0.00000000  0.25000000  0.37500000
